DF-ISE text

Info {
  version   = 1.0
  type      = xyplot
  datasets  = [
    "time"
    "s OuterVoltage" "s InnerVoltage" "s QuasiFermiPotential" "s DisplacementCurrent" "s eCurrent"
    "s hCurrent" "s TotalCurrent" "s Charge" "d OuterVoltage" "d InnerVoltage"
    "d QuasiFermiPotential" "d DisplacementCurrent" "d eCurrent" "d hCurrent" "d TotalCurrent"
    "d Charge" "g OuterVoltage" "g InnerVoltage" "g QuasiFermiPotential" "g DisplacementCurrent"
    "g eCurrent" "g hCurrent" "g TotalCurrent" "g Charge" "body Temperature"
    "body lHeatFlux" "Tmin" "Tave" "Tmax" ]
  functions = [
    Time
    OuterVoltage InnerVoltage QuasiFermiPotential DisplacementCurrent eCurrent
    hCurrent TotalCurrent Charge OuterVoltage InnerVoltage
    QuasiFermiPotential DisplacementCurrent eCurrent hCurrent TotalCurrent
    Charge OuterVoltage InnerVoltage QuasiFermiPotential DisplacementCurrent
    eCurrent hCurrent TotalCurrent Charge Temperature
    lHeatFlux MinTemperature AveTemperature MaxTemperature ]
}

Data {
      0.00000000000000E+00
      0.00000000000000E+00   0.00000000000000E+00   0.00000000000000E+00   0.00000000000000E+00   3.55978144535737E-16
     -9.39173350887998E-32   3.55978144535737E-16   1.10827522554850E-15   0.00000000000000E+00   0.00000000000000E+00
      0.00000000000000E+00   0.00000000000000E+00  -1.76306324250108E-16  -1.18608056647554E-28  -1.76306324250226E-16
      1.05629691332042E-15   0.00000000000000E+00   0.00000000000000E+00   0.00000000000000E+00   0.00000000000000E+00
      0.00000000000000E+00   0.00000000000000E+00   0.00000000000000E+00   7.53647641143003E-17   3.00000000000000E+02
      0.00000000000000E+00   3.00000000000000E+02   2.99999999999999E+02   3.00000000000000E+02
      0.00000000000000E+00
      0.00000000000000E+00   0.00000000000000E+00   0.00000000000000E+00   0.00000000000000E+00  -2.71020680397594E-14
     -1.86650535110635E-31  -2.71020680397594E-14   1.10827522555211E-15  -7.27166909373101E-07  -7.27166909373101E-07
      0.00000000000000E+00   0.00000000000000E+00  -1.11390028812933E-13   1.80992381266795E-25  -1.11390028812752E-13
      1.05629666233362E-15   0.00000000000000E+00   0.00000000000000E+00   0.00000000000000E+00   0.00000000000000E+00
      0.00000000000000E+00   0.00000000000000E+00   0.00000000000000E+00   7.53648765758832E-17   3.00000000000000E+02
      0.00000000000000E+00   3.00000000000000E+02   2.99999999999999E+02   3.00000000000000E+02
      0.00000000000000E+00
      0.00000000000000E+00   0.00000000000000E+00   0.00000000000000E+00   0.00000000000000E+00  -2.34194068764588E-13
      1.31115948364582E-27  -2.34194068764586E-13   1.10827522616558E-15  -7.27166909464946E-07  -7.27166909464946E-07
      0.00000000000000E+00   0.00000000000000E+00  -1.01287982357704E-13  -3.58905839062514E-25  -1.01287982358063E-13
      1.05629666286972E-15   0.00000000000000E+00   0.00000000000000E+00   0.00000000000000E+00   0.00000000000000E+00
      0.00000000000000E+00   0.00000000000000E+00   0.00000000000000E+00   7.53648773039456E-17   3.00000000000000E+02
      0.00000000000000E+00   3.00000000000000E+02   2.99999999999999E+02   3.00000000000000E+02
      0.00000000000000E+00
      0.00000000000000E+00   0.00000000000000E+00   0.00000000000000E+00   0.00000000000000E+00  -1.13869412537867E-14
      1.94509722242530E-25  -1.13869412535921E-14   1.10827531625353E-15   1.60210966850683E-05   1.60210966850683E-05
      0.00000000000000E+00   0.00000000000000E+00  -4.14726138260886E-14   8.48824691924249E-24  -4.14726138176004E-14
      1.05630252245853E-15   0.00000000000000E+00   0.00000000000000E+00   0.00000000000000E+00   0.00000000000000E+00
      0.00000000000000E+00   0.00000000000000E+00   0.00000000000000E+00   7.53623940822333E-17   3.00000000000000E+02
      0.00000000000000E+00   2.99999999999984E+02   2.99999999999983E+02   2.99999999999984E+02
      5.00000000000000E-12
      0.00000000000000E+00   0.00000000000000E+00   0.00000000000000E+00  -2.86256550007670E-10  -1.54141329894663E-07
     -1.00344588881891E-21  -1.54427586444671E-07   1.10780527901765E-15   5.75518218298287E-03   5.75518218298287E-03
      0.00000000000000E+00   1.73053012073338E-09   4.42769546112486E-07  -3.50544242143076E-18   4.44500076229714E-07
      1.05785472906122E-15   0.00000000000000E+00   0.00000000000000E+00   0.00000000000000E+00  -2.90071774814655E-07
      0.00000000000000E+00   0.00000000000000E+00  -2.90071774814655E-07   7.39120352081599E-17   3.00000000000000E+02
     -6.74451141667516E-13   2.99999991804466E+02   3.00000000013047E+02   3.00000023108195E+02
      1.30000000000000E-11
      0.00000000000000E+00   0.00000000000000E+00   0.00000000000000E+00  -7.26041003779530E-10  -4.02526346612250E-07
     -5.87459290306659E-21  -4.03252387616035E-07   1.10584524824087E-15   2.95288264941924E-02   2.95288264941924E-02
      0.00000000000000E+00   4.42313369779312E-09   1.15127692293193E-06  -1.43732434815580E-17   1.15570005661535E-06
      1.06433253386347E-15   0.00000000000000E+00   0.00000000000000E+00   0.00000000000000E+00  -7.52447395975100E-07
      0.00000000000000E+00   0.00000000000000E+00  -7.52447395975100E-07   6.78924560403593E-17   3.00000000000000E+02
     -1.45925205340393E-12   2.99999966811138E+02   3.00000000067628E+02   3.00000079564590E+02
      1.94000000000000E-11
      0.00000000000000E+00   0.00000000000000E+00   0.00000000000000E+00  -1.07185974248982E-09  -5.99898111888411E-07
     -1.37073757649753E-20  -6.00969971630915E-07   1.10351584349654E-15   5.79347209417467E-02   5.79347209417467E-02
      0.00000000000000E+00   6.59336237608238E-09   1.71806661537820E-06  -4.63372785650045E-17   1.72465997770794E-06
      1.07212083812304E-15   0.00000000000000E+00   0.00000000000000E+00   0.00000000000000E+00  -1.12369004531101E-06
      0.00000000000000E+00   0.00000000000000E+00  -1.12369004531101E-06   6.07008397503687E-17   3.00000000000000E+02
     -1.83057459771044E-12   2.99999940949492E+02   3.00000000131023E+02   3.00000131001067E+02
      2.96400000000000E-11
      0.00000000000000E+00   0.00000000000000E+00   0.00000000000000E+00  -1.61290502798527E-09  -9.12805886588410E-07
     -4.86147958403305E-20  -9.14418791616444E-07   1.09787872293533E-15   1.27565460335412E-01   1.27565460335412E-01
      0.00000000000000E+00   1.00979471204666E-08   2.62489804792717E-06  -3.00933365609424E-16   2.63499599474670E-06
      1.09140211634530E-15   0.00000000000000E+00   0.00000000000000E+00   0.00000000000000E+00  -1.72057725185150E-06
      0.00000000000000E+00   0.00000000000000E+00  -1.72057725185150E-06   4.30821286914092E-17   3.00000000000000E+02
     -1.43843912036546E-12   2.99999888918120E+02   3.00000000284645E+02   3.00000225350584E+02
      3.37360000000000E-11
      0.00000000000000E+00   0.00000000000000E+00   0.00000000000000E+00  -1.81166630086732E-09  -1.03381009696890E-06
     -7.63974343257361E-20  -1.03562176326984E-06   1.09534088717830E-15   1.59370499606956E-01   1.59370499606956E-01
      0.00000000000000E+00   1.15452175480387E-08   2.98758515974887E-06  -6.17751402019751E-16   2.99913037667916E-06
      1.10028921551819E-15   0.00000000000000E+00   0.00000000000000E+00   0.00000000000000E+00  -1.96350860984337E-06
      0.00000000000000E+00   0.00000000000000E+00  -1.96350860984337E-06   3.50395974254908E-17   3.00000000000000E+02
     -1.06823922118847E-12   2.99999866288097E+02   3.00000000347081E+02   3.00000264070956E+02
      4.02896000000000E-11
      0.00000000000000E+00   0.00000000000000E+00   0.00000000000000E+00  -2.13677150830412E-09  -1.22876361190638E-06
     -1.71040940512147E-19  -1.23090038341486E-06   1.09054232043337E-15   2.20315028003237E-01   2.20315028003237E-01
      0.00000000000000E+00   1.38409142061070E-08   3.56790453024102E-06  -2.04736218135419E-15   3.58174544239977E-06
      1.11744803971736E-15   0.00000000000000E+00   0.00000000000000E+00   0.00000000000000E+00  -2.35084501624999E-06
      0.00000000000000E+00   0.00000000000000E+00  -2.35084501624999E-06   1.96330995269948E-17   3.00000000000000E+02
     -5.87198666481776E-14   2.99999826936245E+02   3.00000000464523E+02   3.00000340309530E+02
      4.55324800000000E-11
      0.00000000000000E+00   0.00000000000000E+00   0.00000000000000E+00  -2.37816343261621E-09  -1.38008144973806E-06
     -3.38920214313857E-19  -1.38245961317101E-06   1.08626198758317E-15   2.75604528881746E-01   2.75604528881746E-01
      0.00000000000000E+00   1.57215594596591E-08   4.03211591686696E-06  -5.27499355952299E-15   4.04783747105163E-06
      1.13315075377018E-15   0.00000000000000E+00   0.00000000000000E+00   0.00000000000000E+00  -2.66537788807922E-06
      0.00000000000000E+00   0.00000000000000E+00  -2.66537788807922E-06   5.65884310514212E-18   3.00000000000000E+02
      1.07720160367327E-12   2.99999793389496E+02   3.00000000562851E+02   3.00000402989825E+02
      5.39210880000000E-11
      0.00000000000000E+00   0.00000000000000E+00   0.00000000000000E+00  -2.75592763309373E-09  -1.61953064122057E-06
     -1.18885155233808E-18  -1.62228656885485E-06   1.07830629530852E-15   3.80833693805676E-01   3.80833693805676E-01
      0.00000000000000E+00   1.87453009442022E-08   4.77483949422640E-06  -2.40887605983916E-14   4.79358477108184E-06
      1.16335924727453E-15   0.00000000000000E+00   0.00000000000000E+00   0.00000000000000E+00  -3.17129813085637E-06
      0.00000000000000E+00   0.00000000000000E+00  -3.17129813085637E-06  -2.09439337657447E-17   3.00000000000000E+02
      3.56874408027759E-12   2.99999736141597E+02   3.00000000746194E+02   3.00000509517098E+02
      6.06319744000000E-11
      0.00000000000000E+00   0.00000000000000E+00   0.00000000000000E+00  -3.01454100946588E-09  -1.79922679865280E-06
     -3.51328830508339E-18  -1.80224133966578E-06   1.07132581395977E-15   4.75988489554630E-01   4.75988489554630E-01
      0.00000000000000E+00   2.12566687557609E-08   5.36892597129369E-06  -7.55809676460584E-14   5.39018256446849E-06
      1.19100098403251E-15   0.00000000000000E+00   0.00000000000000E+00   0.00000000000000E+00  -3.58794118139088E-06
      0.00000000000000E+00   0.00000000000000E+00  -3.58794118139088E-06  -4.50221994439407E-17   3.00000000000000E+02
      6.04881061028484E-12   2.99999687635511E+02   3.00000000891308E+02   3.00000593432141E+02
      6.60006835200000E-11
      0.00000000000000E+00   0.00000000000000E+00   0.00000000000000E+00  -3.19885972523532E-09  -1.93595042651384E-06
     -8.78799288101173E-18  -1.93914928624786E-06   1.06538627617223E-15   5.59208723278992E-01   5.59208723278992E-01
      0.00000000000000E+00   2.33071112286863E-08   5.84415382842441E-06  -1.79202923615953E-13   5.86746076045017E-06
      1.21540167326286E-15   0.00000000000000E+00   0.00000000000000E+00   0.00000000000000E+00  -3.92831148581606E-06
      0.00000000000000E+00   0.00000000000000E+00  -3.92831148581606E-06  -6.61121611440421E-17   3.00000000000000E+02
      8.30253244478083E-12   2.99999647235136E+02   3.00000001003112E+02   3.00000658829892E+02
      7.02956508160000E-11
      0.00000000000000E+00   0.00000000000000E+00   0.00000000000000E+00  -3.32998667799248E-09  -2.03990440272961E-06
     -1.88243629379682E-17  -2.04323438942643E-06   1.06042996607323E-15   6.30363015840648E-01   6.30363015840648E-01
      0.00000000000000E+00   2.49751829358410E-08   6.22430851923635E-06  -3.45452466335841E-13   6.24928335671972E-06
      1.23641689263396E-15   0.00000000000000E+00   0.00000000000000E+00   0.00000000000000E+00  -4.20604894866197E-06
      0.00000000000000E+00   0.00000000000000E+00  -4.20604894866197E-06  -8.41770038239205E-17   3.00000000000000E+02
      1.02711404841036E-11   2.99999613973161E+02   3.00000001088336E+02   3.00000709619724E+02
      7.37316246528000E-11
      0.00000000000000E+00   0.00000000000000E+00   0.00000000000000E+00  -3.42348752542725E-09  -2.11900892567705E-06
     -3.51802689061712E-17  -2.12243241323766E-06   1.05634671063114E-15   6.90234256641724E-01   6.90234256641724E-01
      0.00000000000000E+00   2.63280045147736E-08   6.52841400100290E-06  -5.71183904431021E-13   6.55474143433377E-06
      1.25420067034384E-15   0.00000000000000E+00   0.00000000000000E+00   0.00000000000000E+00  -4.43230901307555E-06
      0.00000000000000E+00   0.00000000000000E+00  -4.43230901307555E-06  -9.94063016294609E-17   3.00000000000000E+02
      1.19467928779132E-11   2.99999586814162E+02   3.00000001153145E+02   3.00000749096941E+02
      7.51060141875200E-11
      0.00000000000000E+00   0.00000000000000E+00   0.00000000000000E+00  -3.44141093285198E-09  -2.14496435387626E-06
     -4.49449528359159E-17  -2.14840576485405E-06   1.05470267597076E-15   7.14670228564447E-01   7.14670228564447E-01
      0.00000000000000E+00   2.69038092726036E-08   6.65002147446929E-06  -6.93503270627520E-13   6.67692459023862E-06
      1.26148429247277E-15   0.00000000000000E+00   0.00000000000000E+00   0.00000000000000E+00  -4.52851891320055E-06
      0.00000000000000E+00   0.00000000000000E+00  -4.52851891320055E-06  -1.05630250631545E-16   3.00000000000000E+02
      1.26804779790133E-11   2.99999575748404E+02   3.00000001176299E+02   3.00000764118162E+02
      7.73050374430720E-11
      0.00000000000000E+00   0.00000000000000E+00   0.00000000000000E+00  -3.50602215174933E-09  -2.19570610852364E-06
     -6.79565282967628E-17  -2.19921213074335E-06   1.05202156005148E-15   7.54965005073519E-01   7.54965005073519E-01
      0.00000000000000E+00   2.77589610588682E-08   6.84465980620125E-06  -9.41642785213002E-13   6.87241782561733E-06
      1.27352525818052E-15   0.00000000000000E+00   0.00000000000000E+00   0.00000000000000E+00  -4.67320566526813E-06
      0.00000000000000E+00   0.00000000000000E+00  -4.67320566526813E-06  -1.15906738567447E-16   3.00000000000000E+02
      1.37798246395542E-11   2.99999558033990E+02   3.00000001214411E+02   3.00000788483324E+02
      8.08234746519552E-11
      0.00000000000000E+00   0.00000000000000E+00   0.00000000000000E+00  -3.60179845975241E-09  -2.27513326947340E-06
     -1.34186349095581E-16  -2.27873506806734E-06   1.04760855656557E-15   8.22507642587215E-01   8.22507642587215E-01
      0.00000000000000E+00   2.91365045270146E-08   7.15607190792786E-06  -1.51848899028340E-12   7.18520689396588E-06
      1.29379083738076E-15   0.00000000000000E+00   0.00000000000000E+00   0.00000000000000E+00  -4.90647182566617E-06
      0.00000000000000E+00   0.00000000000000E+00  -4.90647182566617E-06  -1.33169851603208E-16   3.00000000000000E+02
      1.56341076121841E-11   2.99999529569533E+02   3.00000001278673E+02   3.00000827555401E+02
      8.36382244190618E-11
      0.00000000000000E+00   0.00000000000000E+00   0.00000000000000E+00  -3.65090617352734E-09  -2.32954307605993E-06
     -2.31297635209485E-16  -2.33319398246476E-06   1.04402371302046E-15   8.78547017918550E-01   8.78547017918550E-01
      0.00000000000000E+00   3.02849566591097E-08   7.40515538620350E-06  -2.19278801540969E-12   7.43543815007459E-06
      1.31067975680967E-15   0.00000000000000E+00   0.00000000000000E+00   0.00000000000000E+00  -5.10224413837576E-06
      0.00000000000000E+00   0.00000000000000E+00  -5.10224413837576E-06  -1.47531392103422E-16   3.00000000000000E+02
      1.72272365909726E-11   2.99999506538882E+02   3.00000001327067E+02   3.00000857661417E+02
      8.81418240464323E-11
      0.00000000000000E+00   0.00000000000000E+00   0.00000000000000E+00  -3.74892831769878E-09  -2.42088117559940E-06
     -5.71110439628175E-16  -2.42463010448821E-06   1.03812342040496E-15   9.73279534920523E-01   9.73279534920523E-01
      0.00000000000000E+00   3.20846569239279E-08   7.80372734979890E-06  -3.86734900774617E-12   7.83580813937382E-06
      1.33937463785142E-15   0.00000000000000E+00   0.00000000000000E+00   0.00000000000000E+00  -5.41117801225398E-06
      0.00000000000000E+00   0.00000000000000E+00  -5.41117801225398E-06  -1.71901171383045E-16   3.00000000000000E+02
      1.98051389351301E-11   2.99999469791675E+02   3.00000001411026E+02   3.00000906042669E+02
      8.99432638973805E-11
      0.00000000000000E+00   0.00000000000000E+00   0.00000000000000E+00  -3.73549438038284E-09  -2.44006292623797E-06
     -8.08187727353700E-16  -2.44379842142654E-06   1.03576620480029E-15   1.01202877489076E+00   1.01202877489076E+00
      0.00000000000000E+00   3.28909196514232E-08   7.96307001993933E-06  -4.79831361047999E-12   7.99595614127714E-06
      1.35116206866857E-15   0.00000000000000E+00   0.00000000000000E+00   0.00000000000000E+00  -5.55215775305787E-06
      0.00000000000000E+00   0.00000000000000E+00  -5.55215775305787E-06  -1.81903049618154E-16   3.00000000000000E+02
      2.09819725166669E-11   2.99999454833787E+02   3.00000001438542E+02   3.00000923715678E+02
      9.28255676588976E-11
      0.00000000000000E+00   0.00000000000000E+00   0.00000000000000E+00  -3.78453445793545E-09  -2.49120314014986E-06
     -1.44731539963045E-15  -2.49498767605511E-06   1.03194237551145E-15   1.07611739212778E+00   1.07611739212778E+00
      0.00000000000000E+00   3.40644903762794E-08   8.21813518594899E-06  -6.71725799800420E-12   8.25219295906727E-06
      1.37071740779842E-15   0.00000000000000E+00   0.00000000000000E+00   0.00000000000000E+00  -5.75720530020215E-06
      0.00000000000000E+00   0.00000000000000E+00  -5.75720530020215E-06  -1.98497064110753E-16   3.00000000000000E+02
      2.26973247274380E-11   2.99999431114813E+02   3.00000001485614E+02   3.00000952408654E+02
      9.51314106681113E-11
      0.00000000000000E+00   0.00000000000000E+00   0.00000000000000E+00  -3.79551537424450E-09  -2.52294579842942E-06
     -2.29659329899228E-15  -2.52674131610026E-06   1.02886898676757E-15   1.12875279700970E+00   1.12875279700970E+00
      0.00000000000000E+00   3.50480259089045E-08   8.42214309296890E-06  -8.71015353314456E-12   8.45718240872427E-06
      1.38683185382852E-15   0.00000000000000E+00   0.00000000000000E+00   0.00000000000000E+00  -5.93044109209319E-06
      0.00000000000000E+00   0.00000000000000E+00  -5.93044109209319E-06  -2.12171730244510E-16   3.00000000000000E+02
      2.41609081641296E-11   2.99999412101437E+02   3.00000001521429E+02   3.00000974413622E+02
      9.69760850754822E-11
      0.00000000000000E+00   0.00000000000000E+00   0.00000000000000E+00  -3.80029938021465E-09  -2.54605787774470E-06
     -3.32226881207743E-15  -2.54985818044719E-06   1.02640395654932E-15   1.17173739964655E+00   1.17173739964655E+00
      0.00000000000000E+00   3.58424540888162E-08   8.58534216230224E-06  -1.06593154893040E-11   8.62117395707557E-06
      1.40002596352671E-15   0.00000000000000E+00   0.00000000000000E+00   0.00000000000000E+00  -6.07131577507677E-06
      0.00000000000000E+00   0.00000000000000E+00  -6.07131577507677E-06  -2.23371331073862E-16   3.00000000000000E+02
      2.53482028378957E-11   2.99999396904120E+02   3.00000001548969E+02   3.00000991481860E+02
      9.99275641272758E-11
      0.00000000000000E+00   0.00000000000000E+00   0.00000000000000E+00  -3.83258109805237E-09  -2.59099622328600E-06
     -6.07452021226282E-15  -2.59482881045857E-06   1.02242144337292E-15   1.24272207614978E+00   1.24272207614978E+00
      0.00000000000000E+00   3.70745376661911E-08   8.84650050360462E-06  -1.45989007742321E-11   8.88356044237004E-06
      1.42187866835407E-15   0.00000000000000E+00   0.00000000000000E+00   0.00000000000000E+00  -6.28873165869312E-06
      0.00000000000000E+00   0.00000000000000E+00  -6.28873165869312E-06  -2.41932390826845E-16   3.00000000000000E+02
      2.72055739808014E-11   2.99999372856734E+02   3.00000001597706E+02   3.00001018899492E+02
      1.02288747368711E-10
      0.00000000000000E+00   0.00000000000000E+00   0.00000000000000E+00  -3.82703690223921E-09  -2.61573332108569E-06
     -9.77314790670134E-15  -2.61956036776107E-06   1.01923351274941E-15   1.30095750008711E+00   1.30095750008711E+00
      0.00000000000000E+00   3.81151146510860E-08   9.05537311890929E-06  -1.86027006223041E-11   9.09346963085976E-06
      1.43986300259326E-15   0.00000000000000E+00   0.00000000000000E+00   0.00000000000000E+00  -6.47390926085268E-06
      0.00000000000000E+00   0.00000000000000E+00  -6.47390926085268E-06  -2.57218476880140E-16   3.00000000000000E+02
      2.87792107329668E-11   2.99999353660274E+02   3.00000001635421E+02   3.00001039796688E+02
      1.04177693961858E-10
      0.00000000000000E+00   0.00000000000000E+00   0.00000000000000E+00  -3.81941719661975E-09  -2.63347154453101E-06
     -1.42769268847667E-14  -2.63729097600456E-06   1.01668451607912E-15   1.34847697786524E+00   1.34847697786524E+00
      0.00000000000000E+00   3.89576139165746E-08   9.22246185023838E-06  -2.24513362253099E-11   9.26139701281873E-06
      1.45457343587179E-15   0.00000000000000E+00   0.00000000000000E+00   0.00000000000000E+00  -6.62410600113185E-06
      0.00000000000000E+00   0.00000000000000E+00  -6.62410600113185E-06  -2.69731059343629E-16   3.00000000000000E+02
      3.00469572689163E-11   2.99999338354112E+02   3.00000001664912E+02   3.00001055940962E+02
      1.07200008510895E-10
      0.00000000000000E+00   0.00000000000000E+00   0.00000000000000E+00  -3.83711805811034E-09  -2.67236478282898E-06
     -2.64585536036781E-14  -2.67620192734564E-06   1.01258153728502E-15   1.42685391484586E+00   1.42685391484586E+00
      0.00000000000000E+00   4.02595666795741E-08   9.48985125387486E-06  -3.00684128255568E-11   9.53008075214161E-06
      1.47890112355138E-15   0.00000000000000E+00   0.00000000000000E+00   0.00000000000000E+00  -6.85387881423311E-06
      0.00000000000000E+00   0.00000000000000E+00  -6.85387881423311E-06  -2.90445637001219E-16   3.00000000000000E+02
      3.20085961808599E-11   2.99999314200558E+02   3.00000001718968E+02   3.00001081897644E+02
      1.09617860150124E-10
      0.00000000000000E+00   0.00000000000000E+00   0.00000000000000E+00  -3.81833918455876E-09  -2.69179872750242E-06
     -4.29496639316416E-14  -2.69561710963664E-06   1.00930780380846E-15   1.49109976637138E+00   1.49109976637138E+00
      0.00000000000000E+00   4.13692867275922E-08   9.70369614018753E-06  -3.76414179610066E-11   9.74502778549717E-06
      1.49889870932293E-15   0.00000000000000E+00   0.00000000000000E+00   0.00000000000000E+00  -7.04941064432495E-06
      0.00000000000000E+00   0.00000000000000E+00  -7.04941064432495E-06  -3.07490066083200E-16   3.00000000000000E+02
      3.36627784341626E-11   2.99999294930673E+02   3.00000001762088E+02   3.00001101529643E+02
      1.11552141461508E-10
      0.00000000000000E+00   0.00000000000000E+00   0.00000000000000E+00  -3.80151487583258E-09  -2.70605740764476E-06
     -6.31287803028352E-14  -2.70985898564938E-06   1.00669616486433E-15   1.54349194039121E+00   1.54349194039121E+00
      0.00000000000000E+00   4.22703923435503E-08   9.87475976926688E-06  -4.47945690530223E-11   9.91698536704138E-06
      1.51524096319121E-15   0.00000000000000E+00   0.00000000000000E+00   0.00000000000000E+00  -7.20712635803811E-06
      0.00000000000000E+00   0.00000000000000E+00  -7.20712635803811E-06  -3.21430675906332E-16   3.00000000000000E+02
      3.49861904587568E-11   2.99999279553929E+02   3.00000001796853E+02   3.00001116612672E+02
      1.14646991559721E-10
      0.00000000000000E+00   0.00000000000000E+00   0.00000000000000E+00  -3.80883767201741E-09  -2.74160272069865E-06
     -1.17943950739760E-13  -2.74541167631462E-06   1.00250314254124E-15   1.62982290451505E+00   1.62982290451505E+00
      0.00000000000000E+00   4.36566289017792E-08   1.01485195919667E-05  -5.86551077498567E-11   1.01921175657608E-05
      1.54223054352203E-15   0.00000000000000E+00   0.00000000000000E+00   0.00000000000000E+00  -7.44670589302519E-06
      0.00000000000000E+00   0.00000000000000E+00  -7.44670589302519E-06  -3.44477114370728E-16   3.00000000000000E+02
      3.70175867386304E-11   2.99999255287215E+02   3.00000001863271E+02   3.00001140904579E+02
      1.17122871638292E-10
      0.00000000000000E+00   0.00000000000000E+00   0.00000000000000E+00  -3.78192614811251E-09  -2.75910520668890E-06
     -1.92469245877504E-13  -2.76288732530626E-06   9.99164219247956E-16   1.70054605269400E+00   1.70054605269400E+00
      0.00000000000000E+00   4.48509953819736E-08   1.03674444294970E-05  -7.21351154048550E-11   1.04122232897636E-05
      1.56439218627161E-15   0.00000000000000E+00   0.00000000000000E+00   0.00000000000000E+00  -7.64933593755280E-06
      0.00000000000000E+00   0.00000000000000E+00  -7.64933593755280E-06  -3.63415952832810E-16   3.00000000000000E+02
      3.87193241393488E-11   2.99999235846639E+02   3.00000001918818E+02   3.00001159155585E+02
      1.21084279764005E-10
      0.00000000000000E+00   0.00000000000000E+00   0.00000000000000E+00  -3.78486510846512E-09  -2.80388337939814E-06
     -4.25063881290420E-13  -2.80766866957048E-06   9.93806293129914E-16   1.81787437247445E+00   1.81787437247445E+00
      0.00000000000000E+00   4.66889105444620E-08   1.07178026054429E-05  -9.90506130627709E-11   1.07643924653743E-05
      1.60124573327486E-15   0.00000000000000E+00   0.00000000000000E+00   0.00000000000000E+00  -7.95672381123335E-06
      0.00000000000000E+00   0.00000000000000E+00  -7.95672381123335E-06  -3.94935783192686E-16   3.00000000000000E+02
      4.13075863280387E-11   2.99999205231046E+02   3.00000002032400E+02   3.00001188715743E+02
      1.24253406264576E-10
      0.00000000000000E+00   0.00000000000000E+00   0.00000000000000E+00  -3.74754863275480E-09  -2.82758857606479E-06
     -7.89483522299793E-13  -2.83133691418106E-06   9.89548953264338E-16   1.91451983765111E+00   1.91451983765111E+00
      0.00000000000000E+00   4.82943229523634E-08   1.09979594315520E-05  -1.25920004230478E-10   1.10461278345001E-05
      1.63167386454697E-15   0.00000000000000E+00   0.00000000000000E+00   0.00000000000000E+00  -8.21479093261941E-06
      0.00000000000000E+00   0.00000000000000E+00  -8.21479093261941E-06  -4.20969494833897E-16   3.00000000000000E+02
      4.34541302539422E-11   2.99999180501971E+02   3.00000002132369E+02   3.00001210588072E+02
      1.26788707465032E-10
      0.00000000000000E+00   0.00000000000000E+00   0.00000000000000E+00  -3.71865715002753E-09  -2.84790740442246E-06
     -1.28920665234410E-12  -2.85162735077914E-06   9.86161567122504E-16   1.99363719015834E+00   1.99363719015834E+00
      0.00000000000000E+00   4.96090714027089E-08   1.12220583099041E-05  -1.51275199455892E-10   1.12715161061074E-05
      1.65662372691962E-15   0.00000000000000E+00   0.00000000000000E+00   0.00000000000000E+00  -8.41988871447981E-06
      0.00000000000000E+00   0.00000000000000E+00  -8.41988871447981E-06  -4.42316448799428E-16   3.00000000000000E+02
      4.51488652346012E-11   2.99999160500676E+02   3.00000002219625E+02   3.00001227138730E+02
      1.30845189385763E-10
      0.00000000000000E+00   0.00000000000000E+00   0.00000000000000E+00  -3.71880518490217E-09  -2.89865905360612E-06
     -2.84902213070563E-12  -2.90238070781315E-06   9.80728488583163E-16   2.12472719105448E+00   2.12472719105448E+00
      0.00000000000000E+00   5.16134504277747E-08   1.15807240135935E-05  -2.00137503467438E-10   1.16321373265178E-05
      1.69802819754141E-15   0.00000000000000E+00   0.00000000000000E+00   0.00000000000000E+00  -8.72975665471405E-06
      0.00000000000000E+00   0.00000000000000E+00  -8.72975665471405E-06  -4.77728548841651E-16   3.00000000000000E+02
      4.77158805569837E-11   2.99999128889578E+02   3.00000002398369E+02   3.00001254330747E+02
      1.34090374922347E-10
      0.00000000000000E+00   0.00000000000000E+00   0.00000000000000E+00  -3.68369795211238E-09  -2.93208850207211E-06
     -5.29522377461008E-12  -2.93577749524799E-06   9.76409008425142E-16   2.23262875488681E+00   2.23262875488681E+00
      0.00000000000000E+00   5.33924052077743E-08   1.18674891145735E-05  -2.47184391802153E-10   1.19206343353895E-05
      1.73215681962416E-15   0.00000000000000E+00   0.00000000000000E+00   0.00000000000000E+00  -8.98485683739662E-06
      0.00000000000000E+00   0.00000000000000E+00  -8.98485683739662E-06  -5.06886076298650E-16   3.00000000000000E+02
      4.98258432879118E-11   2.99999102873510E+02   3.00000002558941E+02   3.00001274485660E+02
      1.36686523351614E-10
      0.00000000000000E+00   0.00000000000000E+00   0.00000000000000E+00  -3.65808927882635E-09  -2.96221738370680E-06
     -8.65384357585056E-12  -2.96588412682920E-06   9.72969253984026E-16   2.32091899053693E+00   2.32091899053693E+00
      0.00000000000000E+00   5.48581406832487E-08   1.20968641592172E-05  -2.90340437807236E-10   1.21514319594626E-05
      1.76010508518095E-15   0.00000000000000E+00   0.00000000000000E+00   0.00000000000000E+00  -9.18554776469350E-06
      0.00000000000000E+00   0.00000000000000E+00  -9.18554776469350E-06  -5.30733121699920E-16   3.00000000000000E+02
      5.14828102893719E-11   2.99999081490504E+02   3.00000002699636E+02   3.00001289842412E+02
      1.40840360838442E-10
      0.00000000000000E+00   0.00000000000000E+00   0.00000000000000E+00  -3.66057555531495E-09  -3.02636785582040E-06
     -1.91533007497040E-11  -3.03004758467646E-06   9.67447587680936E-16   2.46709389699021E+00   2.46709389699021E+00
      0.00000000000000E+00   5.70795171641171E-08   1.24639992968022E-05  -3.70750036988024E-10   1.25207080639293E-05
      1.80639977377982E-15   0.00000000000000E+00   0.00000000000000E+00   0.00000000000000E+00  -9.49066051958442E-06
      0.00000000000000E+00   0.00000000000000E+00  -9.49066051958442E-06  -5.70155783140927E-16   3.00000000000000E+02
      5.39849679882086E-11   2.99999047563883E+02   3.00000002975939E+02   3.00001315880891E+02
      1.42501895833173E-10
      0.00000000000000E+00   0.00000000000000E+00   0.00000000000000E+00  -3.61336371578730E-09  -3.04486773412388E-06