DF-ISE text

Info {
  version   = 1.0
  type      = xyplot
  datasets  = [
    "time"
    "gate OuterVoltage" "gate InnerVoltage" "gate QuasiFermiPotential" "gate DisplacementCurrent" "gate eCurrent"
    "gate hCurrent" "gate TotalCurrent" "gate Charge" "gate Temperature" "gate lHeatFlux"
    "source OuterVoltage" "source InnerVoltage" "source QuasiFermiPotential" "source DisplacementCurrent" "source eCurrent"
    "source hCurrent" "source TotalCurrent" "source Charge" "source Temperature" "source lHeatFlux"
    "body OuterVoltage" "body InnerVoltage" "body QuasiFermiPotential" "body DisplacementCurrent" "body eCurrent"
    "body hCurrent" "body TotalCurrent" "body Charge" "body Temperature" "body lHeatFlux"
    "drain OuterVoltage" "drain InnerVoltage" "drain QuasiFermiPotential" "drain DisplacementCurrent" "drain eCurrent"
    "drain hCurrent" "drain TotalCurrent" "drain Charge" "drain Temperature" "drain lHeatFlux"
    "bodytherm Temperature" "bodytherm lHeatFlux" "Tmin" "Tave" "Tmax" ]
  functions = [
    Time
    OuterVoltage InnerVoltage QuasiFermiPotential DisplacementCurrent eCurrent
    hCurrent TotalCurrent Charge Temperature lHeatFlux
    OuterVoltage InnerVoltage QuasiFermiPotential DisplacementCurrent eCurrent
    hCurrent TotalCurrent Charge Temperature lHeatFlux
    OuterVoltage InnerVoltage QuasiFermiPotential DisplacementCurrent eCurrent
    hCurrent TotalCurrent Charge Temperature lHeatFlux
    OuterVoltage InnerVoltage QuasiFermiPotential DisplacementCurrent eCurrent
    hCurrent TotalCurrent Charge Temperature lHeatFlux
    Temperature lHeatFlux MinTemperature AveTemperature MaxTemperature ]
}

Data {
      0.00000000000000E+00
      0.00000000000000E+00   0.00000000000000E+00   0.00000000000000E+00   0.00000000000000E+00   0.00000000000000E+00
      0.00000000000000E+00   0.00000000000000E+00  -2.47780486439482E-17   3.00000000000000E+02   0.00000000000000E+00
      0.00000000000000E+00   0.00000000000000E+00   0.00000000000000E+00   0.00000000000000E+00   1.53262685484882E-22
     -1.53009003555924E-22   2.53681928957288E-25   1.32462570737700E-17   3.00000000000000E+02   0.00000000000000E+00
      0.00000000000000E+00   0.00000000000000E+00   0.00000000000000E+00   0.00000000000000E+00   2.45733566432337E-21
     -2.45783224208069E-21  -4.96577757316456E-25  -1.26681392880835E-18   3.00000000000000E+02   0.00000000000000E+00
      0.00000000000000E+00   0.00000000000000E+00   0.00000000000000E+00   0.00000000000000E+00   1.41760435750502E-22
     -1.41517539922144E-22   2.42895828357973E-25   1.27986054989865E-17   3.00000000000000E+02   0.00000000000000E+00
      3.00000000000000E+02   0.00000000000000E+00   3.00000000000000E+02   3.00000000000016E+02   3.00000000000000E+02
      0.00000000000000E+00
      0.00000000000000E+00   0.00000000000000E+00   0.00000000000000E+00   0.00000000000000E+00   0.00000000000000E+00
      0.00000000000000E+00   0.00000000000000E+00  -2.47781084447080E-17   3.00000000000000E+02   0.00000000000000E+00
      0.00000000000000E+00   0.00000000000000E+00   0.00000000000000E+00   0.00000000000000E+00   5.65814330256796E-17
     -7.35533603267677E-19   5.58458994224119E-17   1.32462230477158E-17   3.00000000000000E+02   0.00000000000000E+00
      0.00000000000000E+00   0.00000000000000E+00   0.00000000000000E+00   0.00000000000000E+00  -9.02384099788636E-17
      5.06199862975097E-19  -8.97322101158885E-17  -1.26671057837367E-18   3.00000000000000E+02   0.00000000000000E+00
     -2.57895521686612E-10  -2.57895521686612E-10   0.00000000000000E+00   0.00000000000000E+00   5.90497020764832E-17
     -2.51633913830061E-17   3.38863106934771E-17   1.27985959753658E-17   3.00000000000000E+02   0.00000000000000E+00
      3.00000000000000E+02   0.00000000000000E+00   3.00000000000000E+02   3.00000000000016E+02   3.00000000000000E+02
      0.00000000000000E+00
      0.00000000000000E+00   0.00000000000000E+00   0.00000000000000E+00   0.00000000000000E+00   0.00000000000000E+00
      0.00000000000000E+00   0.00000000000000E+00  -2.47781084447745E-17   3.00000000000000E+02   0.00000000000000E+00
      0.00000000000000E+00   0.00000000000000E+00   0.00000000000000E+00   0.00000000000000E+00   5.79310296335171E-17
     -1.87101303321210E-18   5.60600166003050E-17   1.32462230476962E-17   3.00000000000000E+02   0.00000000000000E+00
      0.00000000000000E+00   0.00000000000000E+00   0.00000000000000E+00   0.00000000000000E+00  -9.02382649533896E-17
      8.09428599614910E-20  -9.01573220934281E-17  -1.26671057827644E-18   3.00000000000000E+02   0.00000000000000E+00
     -2.57896348289247E-10  -2.57896348289247E-10   0.00000000000000E+00   0.00000000000000E+00   5.60433732842880E-17
     -2.19460677911645E-17   3.40973054931235E-17   1.27985959753548E-17   3.00000000000000E+02   0.00000000000000E+00
      3.00000000000000E+02   0.00000000000000E+00   3.00000000000000E+02   3.00000000000016E+02   3.00000000000000E+02
      0.00000000000000E+00
      0.00000000000000E+00   0.00000000000000E+00   0.00000000000000E+00   0.00000000000000E+00   0.00000000000000E+00
      0.00000000000000E+00   0.00000000000000E+00  -2.47781084557805E-17   3.00000000000000E+02  -7.84091180200277E-19
      0.00000000000000E+00   0.00000000000000E+00   0.00000000000000E+00   0.00000000000000E+00   6.58306856838814E-21
     -1.05517430575320E-20  -3.96867448914384E-21   1.32462230477284E-17   3.00000000000000E+02  -4.31297504007390E-19
      0.00000000000000E+00   0.00000000000000E+00   0.00000000000000E+00   0.00000000000000E+00   2.15661820725356E-20
     -1.76002985916476E-20   3.96588348088798E-21  -1.26671057839693E-18   3.00000000000000E+02  -9.27987298318141E-19
      2.81410995780855E-11   2.81410995780855E-11   0.00000000000000E+00   0.00000000000000E+00   7.74935244935961E-20
     -7.74907334853401E-20   2.79100825596793E-24   1.27985959864491E-17   3.00000000000000E+02  -1.19456346595958E-18
      3.00000000000000E+02  -2.12207113990688E-19   3.00000000000000E+02   3.00000000000016E+02   3.00000000000001E+02
      3.12500000000000E-11
      0.00000000000000E+00   0.00000000000000E+00   0.00000000000000E+00  -2.32059842347344E-09  -7.87489880406793E-10
      0.00000000000000E+00  -3.10808830388023E-09  -2.48752362152769E-17   3.00000000000000E+02  -9.16963749665946E-12
      0.00000000000000E+00   0.00000000000000E+00   0.00000000000000E+00  -5.15972551090961E-12  -1.39230388878866E-12
     -1.13152406629794E-14  -6.56334464036125E-12   1.32460250124887E-17   3.00000000000000E+02  -1.51362729808780E-13
      0.00000000000000E+00   0.00000000000000E+00   0.00000000000000E+00  -5.19161541002224E-12   9.25753778362299E-15
     -5.16599362434490E-12  -1.03483514965835E-11  -1.26702589503833E-18   3.00000000000000E+02  -3.66431503644113E-13
      2.54182746127730E-03   2.54182746127730E-03   0.00000000000000E+00   1.39489044931952E-10   2.98578217132788E-09
     -2.71216242652412E-13   3.12500000001718E-09   1.28962370978265E-17   3.00000000000000E+02  -5.16690825046773E-12
      3.00000000000000E+02  -2.12207113990688E-19   3.00000000000000E+02   3.00000000015071E+02   3.00000012947507E+02
      8.12500000000000E-11
      0.00000000000000E+00   0.00000000000000E+00   0.00000000000000E+00  -6.03265746061914E-09  -2.04396495885096E-09
      0.00000000000000E+00  -8.07662241947010E-09  -2.52790673362503E-17   3.00000000000000E+02  -3.45291212062293E-11
      0.00000000000000E+00   0.00000000000000E+00   0.00000000000000E+00  -1.26399822047088E-11  -3.83778759315162E-12
     -4.04824721111300E-14  -1.65182522699715E-11   1.32452477905170E-17   3.00000000000000E+02  -8.32588164594590E-13
      0.00000000000000E+00   0.00000000000000E+00   0.00000000000000E+00  -1.25752942919741E-11   3.59734518147044E-14
     -1.93200074194779E-11  -3.18593282596373E-11  -1.26857926063139E-18   3.00000000000000E+02  -1.94722785338431E-12
      1.31351869766216E-02   1.31351869766216E-02   0.00000000000000E+00   3.63773756240505E-10   7.76188857446849E-09
     -6.62330709306634E-13   8.12499999999969E-09   1.33023988063647E-17   3.00000000000000E+02  -1.54172784921659E-11
      3.00000000000000E+02  -2.12207113990688E-19   3.00000000000000E+02   3.00000000070001E+02   3.00000040383171E+02
      1.61250000000000E-10
      0.00000000000000E+00   0.00000000000000E+00   0.00000000000000E+00  -1.19704867919049E-08  -4.04741877296476E-09
      0.00000000000000E+00  -1.60179055648697E-08  -2.65604997814400E-17   3.00000000000000E+02  -8.48895072104894E-11
      0.00000000000000E+00   0.00000000000000E+00   0.00000000000000E+00  -2.30864979715412E-11  -7.32935913670078E-12
     -1.11000291595258E-13  -3.05268573998373E-11   1.32429714451391E-17   3.00000000000000E+02  -2.67448682083962E-12
      0.00000000000000E+00   0.00000000000000E+00   0.00000000000000E+00  -2.25064787846526E-11   1.03522924188829E-13
     -5.41646218702702E-11  -7.65675777307340E-11  -1.27455420897546E-18   3.00000000000000E+02  -6.91111823345078E-12
      4.70052438788261E-02   4.70052438788261E-02   0.00000000000000E+00   7.28879387285211E-10   1.53972241719390E-08
     -1.10355922405486E-12   1.61250000000002E-08   1.45920825452762E-17   3.00000000000000E+02  -3.33970275167949E-11
      3.00000000000000E+02  -3.53678523317813E-19   3.00000000000000E+02   3.00000000223657E+02   3.00000088070789E+02
      2.25250000000000E-10
      0.00000000000000E+00   0.00000000000000E+00   0.00000000000000E+00  -1.67197990669361E-08  -5.64622578431001E-09
      0.00000000000000E+00  -2.23660248512461E-08  -2.79919253719197E-17   3.00000000000000E+02  -1.22766233092178E-10
      0.00000000000000E+00   0.00000000000000E+00   0.00000000000000E+00  -3.08528618928771E-11  -9.45559622798419E-12
     -1.82451007227619E-13  -4.04909091280889E-11   1.32405341501054E-17   3.00000000000000E+02  -4.35841263317188E-12
      0.00000000000000E+00   0.00000000000000E+00   0.00000000000000E+00  -2.96669019548725E-11   1.71804407649561E-13
     -8.89891420784655E-11  -1.18484239625689E-10  -1.28194575752249E-18   3.00000000000000E+02  -1.23699496552417E-11
      8.52869641792792E-02   8.52869641792792E-02   0.00000000000000E+00   1.03246060210689E-09   2.14936565260114E-08
     -1.11712811838705E-12   2.25249999999999E-08   1.60333369793367E-17   3.00000000000000E+02  -4.58041763203306E-11
      3.00000000000000E+02  -7.42724898967407E-19   3.00000000000000E+02   3.00000000374955E+02   3.00000120657907E+02
      2.76450000000000E-10
      0.00000000000000E+00   0.00000000000000E+00   0.00000000000000E+00  -2.05175965588499E-08  -6.92342546604471E-09
      0.00000000000000E+00  -2.74410220248946E-08  -2.93969056995943E-17   3.00000000000000E+02  -1.50036923491037E-10
      0.00000000000000E+00   0.00000000000000E+00   0.00000000000000E+00  -3.68772828307654E-11  -1.09364110678639E-11
     -2.49618123145014E-13  -4.80633120217744E-11   1.32382012510647E-17   3.00000000000000E+02  -5.72634256783388E-12
      0.00000000000000E+00   0.00000000000000E+00   0.00000000000000E+00  -3.50983673842693E-11   2.35099831708814E-13
     -1.21051395531340E-10  -1.55914663083901E-10  -1.28970764754439E-18   3.00000000000000E+02  -1.76607533118636E-11
      1.23339941267165E-01   1.23339941267165E-01   0.00000000000000E+00   1.28574681012184E-09   2.63598210290016E-08
     -5.67839123190380E-13   2.76450000000002E-08   1.74484120960739E-17   3.00000000000000E+02  -5.44016529665060E-11
      3.00000000000000E+02  -1.41471409327125E-18   3.00000000000000E+02   3.00000000509793E+02   3.00000144982639E+02
      3.17410000000000E-10
      0.00000000000000E+00   0.00000000000000E+00   0.00000000000000E+00  -2.35521046653211E-08  -7.94618216488179E-09
      0.00000000000000E+00  -3.14982868302028E-08  -3.06870755281594E-17   3.00000000000000E+02  -1.70204777759852E-10
      0.00000000000000E+00   0.00000000000000E+00   0.00000000000000E+00  -4.17392984867296E-11  -1.20902919093547E-11
     -3.10373292086000E-13  -5.41399636881704E-11   1.32360874167033E-17   3.00000000000000E+02  -6.80595395401867E-12
      0.00000000000000E+00   0.00000000000000E+00   0.00000000000000E+00  -3.94296448004229E-11   2.91388235669756E-13
     -1.49434949543865E-10  -1.88573206108618E-10  -1.29718259281920E-18   3.00000000000000E+02  -2.24848829526137E-11
      1.58736908231989E-01   1.58736908231989E-01   0.00000000000000E+00   1.49774083236328E-09   3.02425631451882E-08
      6.96022448192726E-13   3.17409999999996E-08   1.87481707042753E-17   3.00000000000000E+02  -6.07507045441258E-11
      3.00000000000000E+02  -2.27238451231693E-18   3.00000000000000E+02   3.00000000625762E+02   3.00000163691092E+02
      3.50178000000000E-10
      0.00000000000000E+00   0.00000000000000E+00   0.00000000000000E+00  -2.59736351653666E-08  -8.76821585582257E-09
      0.00000000000000E+00  -3.47418510211891E-08  -3.18254965024217E-17   3.00000000000000E+02  -1.85609587212088E-10
      0.00000000000000E+00   0.00000000000000E+00   0.00000000000000E+00  -4.57979358077242E-11  -1.30436259148001E-11
     -3.64122782205753E-13  -5.92056845047300E-11   1.32342310689831E-17   3.00000000000000E+02  -7.65725771341157E-12
      0.00000000000000E+00   0.00000000000000E+00   0.00000000000000E+00  -4.30403365608778E-11   3.40339693037497E-13
     -1.74043297438851E-10  -2.16743294306691E-10  -1.30400800494431E-18   3.00000000000000E+02  -2.67363117871322E-11
      1.90369806141335E-01   1.90369806141335E-01   0.00000000000000E+00   1.67547202838718E-09   3.33395637879455E-08
      2.76418366793969E-12   3.50178000000006E-08   1.98952734383829E-17   3.00000000000000E+02  -6.56683411290781E-11
      3.00000000000000E+02  -3.25384241452385E-18   3.00000000000000E+02   3.00000000723775E+02   3.00000178431852E+02
      3.76392400000000E-10
      0.00000000000000E+00   0.00000000000000E+00   0.00000000000000E+00  -2.79037392847442E-08  -9.43109977848298E-09
      0.00000000000000E+00  -3.73348390632272E-08  -3.28042069075608E-17   3.00000000000000E+02  -1.97302917834881E-10
      0.00000000000000E+00   0.00000000000000E+00   0.00000000000000E+00  -4.92631638853883E-11  -1.38538614964436E-11
     -4.10990626616225E-13  -6.35280160084481E-11   1.32326331864576E-17   3.00000000000000E+02  -8.32701651092200E-12
      0.00000000000000E+00   0.00000000000000E+00   0.00000000000000E+00  -4.61444773513780E-11   3.82332729216254E-13
     -1.95110776141659E-10  -2.40872920763821E-10  -1.31002186297840E-18   3.00000000000000E+02  -3.04048265223241E-11
      2.17893860143324E-01   2.17893860143324E-01   0.00000000000000E+00   1.82425485648941E-09   3.58093651417240E-08
      5.62000178614289E-12   3.76392399999995E-08   2.08815955840815E-17   3.00000000000000E+02  -6.93718599326389E-11
      3.00000000000000E+02  -4.26182620597959E-18   3.00000000000000E+02   3.00000000805217E+02   3.00000189385059E+02
      4.18335440000000E-10
      0.00000000000000E+00   0.00000000000000E+00   0.00000000000000E+00  -3.07759126419874E-08  -1.05618127881667E-08
      0.00000000000000E+00  -4.13377254301541E-08  -3.45380367787868E-17   3.00000000000000E+02  -1.79211015857076E-10
      0.00000000000000E+00   0.00000000000000E+00   0.00000000000000E+00  -8.86818256622830E-11  -2.21888843060313E-11
     -3.89058456109464E-12  -1.14761294529409E-10   1.32283750453354E-17   3.00000000000000E+02  -9.90287968676915E-12
      0.00000000000000E+00   0.00000000000000E+00   0.00000000000000E+00  -9.21642603762045E-11   5.63932436365187E-13
     -2.89456947376452E-10  -3.81057275316291E-10  -1.31295251290487E-18   3.00000000000000E+02  -4.22445047887210E-11
      2.67261473478724E-01   2.67261473478724E-01   0.00000000000000E+00   2.02768822494614E-09   3.97924420442812E-08
      1.34137307724395E-11   4.18335439999998E-08   2.26226142463563E-17   3.00000000000000E+02  -5.28014134584567E-11
      3.00000000000000E+02  -6.71989194303829E-18   2.99999102672386E+02   3.00000000956468E+02   3.00000161818977E+02
      4.51889872000000E-10
      0.00000000000000E+00   0.00000000000000E+00   0.00000000000000E+00  -3.32849669255948E-08  -1.13909630744353E-08
      0.00000000000000E+00  -4.46759300000302E-08  -3.60371122340096E-17   3.00000000000000E+02  -1.96484668614391E-10
      0.00000000000000E+00   0.00000000000000E+00   0.00000000000000E+00  -7.82347312130686E-11  -2.00116561826835E-11
     -3.15459612294688E-12  -1.01400983518699E-10   1.32250533748513E-17   3.00000000000000E+02  -1.06870809994056E-11
      0.00000000000000E+00   0.00000000000000E+00   0.00000000000000E+00  -7.88199422639612E-11   6.56880716267971E-13
     -3.33493154903356E-10  -4.11656216451049E-10  -1.31901044650620E-18   3.00000000000000E+02  -5.13869487214097E-11
      3.10902550660571E-01   3.10902550660571E-01   0.00000000000000E+00   2.25508859428180E-09   4.29060999270067E-08
      2.77986787113606E-11   4.51889871999998E-08   2.41310693056644E-17   3.00000000000000E+02  -6.44416668608168E-11
      3.00000000000000E+02  -9.40784872025351E-18   2.99999625950159E+02   3.00000001093010E+02   3.00000172826368E+02
      5.05576963200000E-10
      0.00000000000000E+00   0.00000000000000E+00   0.00000000000000E+00  -3.72843340613544E-08  -1.27431697261337E-08
      0.00000000000000E+00  -5.00275037874880E-08  -3.87229433923567E-17   3.00000000000000E+02  -2.24628633380995E-10
      0.00000000000000E+00   0.00000000000000E+00   0.00000000000000E+00  -6.68646980639707E-11  -1.78648916173163E-11
     -1.15619240221290E-12  -8.58857820834999E-11   1.32204229546904E-17   3.00000000000000E+02  -1.13710512938342E-11
      0.00000000000000E+00   0.00000000000000E+00   0.00000000000000E+00  -6.22289884935276E-11   7.62090189269861E-13
     -3.82839852124488E-10  -4.44306750428745E-10  -1.33714494116766E-18   3.00000000000000E+02  -6.34956654435977E-11
      3.90810333442110E-01   3.90810333442110E-01   0.00000000000000E+00   2.59596039144464E-09   4.78808734397019E-08
      8.08624888537269E-11   5.05576963200003E-08   2.68396653788340E-17   3.00000000000000E+02  -7.91236576225335E-11
      3.00000000000000E+02  -1.63753156296138E-17   3.00000000000000E+02   3.00000001300485E+02   3.00000204974049E+02
      5.48526636160000E-10
      0.00000000000000E+00   0.00000000000000E+00   0.00000000000000E+00  -4.03479744048399E-08  -1.38802239313765E-08
      0.00000000000000E+00  -5.42281983362163E-08  -4.10520267761073E-17   3.00000000000000E+02  -1.95897791045454E-10
      0.00000000000000E+00   0.00000000000000E+00   0.00000000000000E+00  -8.01275642912581E-11  -2.08314842222794E-11
     -1.08326556324199E-12  -1.02042314076779E-10   1.32161555281336E-17   3.00000000000000E+02  -1.12184636140491E-11
      0.00000000000000E+00   0.00000000000000E+00   0.00000000000000E+00  -7.61378300358795E-11   8.91699514292370E-13
     -4.47176835185395E-10  -5.22422965706982E-10  -1.35156337902487E-18   3.00000000000000E+02  -7.48605317980296E-11
      4.61032762986444E-01   4.61032762986444E-01   0.00000000000000E+00   2.85001368432993E-09   5.18225737746858E-08
      1.80076156984644E-10   5.48526636160004E-08   2.91874346269985E-17   3.00000000000000E+02  -6.49797936795332E-11
      3.00000000000000E+02  -2.42269788472681E-17   3.00000000000000E+02   3.00000001414177E+02   3.00000164501631E+02
      5.65706505344000E-10
      0.00000000000000E+00   0.00000000000000E+00   0.00000000000000E+00  -4.15539652648628E-08  -1.43409733857919E-08
      0.00000000000000E+00  -5.58949386506547E-08  -4.20122945101733E-17   3.00000000000000E+02  -1.76582896407668E-10
      0.00000000000000E+00   0.00000000000000E+00   0.00000000000000E+00  -8.85413997949719E-11  -2.26595634535435E-11
     -1.15942347324645E-12  -1.12360386721762E-10   1.32142799069744E-17   3.00000000000000E+02  -1.10018335309148E-11
      0.00000000000000E+00   0.00000000000000E+00   0.00000000000000E+00  -8.56340881570996E-11   9.54704205629280E-13
     -4.78672113071550E-10  -5.63351497023021E-10  -1.35698556570328E-18   3.00000000000000E+02  -7.99441676897908E-11
      4.90105375752419E-01   4.90105375752419E-01   0.00000000000000E+00   2.94772268937399E-09   5.33786416998958E-08
      2.44286145130124E-10   5.65706505343999E-08   3.01550001689021E-17   3.00000000000000E+02  -5.75292397357175E-11
      3.00000000000000E+02  -2.77549221173626E-17   3.00000000000000E+02   3.00000001452374E+02   3.00000137134449E+02
      5.79450400691200E-10
      0.00000000000000E+00   0.00000000000000E+00   0.00000000000000E+00  -4.25166587342779E-08  -1.47041195015757E-08
      0.00000000000000E+00  -5.72207782358535E-08  -4.27987308979321E-17   3.00000000000000E+02  -1.63040658440000E-10
      0.00000000000000E+00   0.00000000000000E+00   0.00000000000000E+00  -9.66267419936279E-11  -2.43962454196134E-11
     -1.25185096406724E-12  -1.22274838377309E-10   1.32126463704736E-17   3.00000000000000E+02  -1.07723221245878E-11
      0.00000000000000E+00   0.00000000000000E+00   0.00000000000000E+00  -9.50020510316290E-11   1.01334899345992E-12
     -5.07998292849698E-10  -6.01986994887868E-10  -1.36096685482091E-18   3.00000000000000E+02  -8.44771349398598E-11
      5.13939895741849E-01   5.13939895741849E-01   0.00000000000000E+00   3.01785829518728E-09   5.46170942949769E-08
      3.10087478954485E-10   5.79450400691187E-08   3.09470513822794E-17   3.00000000000000E+02  -5.64877929325930E-11
      3.00000000000000E+02  -3.08672931225586E-17   3.00000000000000E+02   3.00000001487809E+02   3.00000123954176E+02
      6.01440633246720E-10
      0.00000000000000E+00   0.00000000000000E+00   0.00000000000000E+00  -4.40360430433346E-08  -1.52848585461625E-08
      0.00000000000000E+00  -5.93209015894971E-08  -4.41032113192882E-17   3.00000000000000E+02  -1.48905895378593E-10
      0.00000000000000E+00   0.00000000000000E+00   0.00000000000000E+00  -1.12789383373524E-10  -2.78374453068449E-11
     -1.46275497551958E-12  -1.42089583655888E-10   1.32096053587063E-17   3.00000000000000E+02  -1.04637791870291E-11
      0.00000000000000E+00   0.00000000000000E+00   0.00000000000000E+00  -1.14095819468925E-10   1.13383155022362E-12
     -5.68110163600039E-10  -6.81072151518740E-10  -1.36598552725583E-18   3.00000000000000E+02  -9.34187038155541E-11
      5.53490084336796E-01   5.53490084336796E-01   0.00000000000000E+00   3.12313051906210E-09   5.65695146422719E-08
      4.51418163337794E-10   6.01440633246718E-08   3.22595914878376E-17   3.00000000000000E+02  -6.01619420309107E-11
      3.00000000000000E+02  -3.66410950157205E-17   3.00000000000000E+02   3.00000001567840E+02   3.00000136306345E+02
      6.36625005335552E-10
      0.00000000000000E+00   0.00000000000000E+00   0.00000000000000E+00  -4.63782096087914E-08  -1.62229642356398E-08
      0.00000000000000E+00  -6.26011738444312E-08  -4.63057943130285E-17   3.00000000000000E+02  -1.42569547995999E-10
      0.00000000000000E+00   0.00000000000000E+00   0.00000000000000E+00  -1.49569024831340E-10  -3.55947391118748E-11
     -2.06876539470166E-12  -1.87232529337916E-10   1.32031878774688E-17   3.00000000000000E+02  -1.05682242456573E-11
      0.00000000000000E+00   0.00000000000000E+00   0.00000000000000E+00  -1.58429495546442E-10   1.43447383880103E-12
     -7.17099138079081E-10  -8.74094159786722E-10  -1.36829059937228E-18   3.00000000000000E+02  -1.15029617360880E-10
      6.20234940367295E-01   6.20234940367295E-01   0.00000000000000E+00   3.27731942867900E-09   5.95770290752352E-08
      8.08152029641694E-10   6.36625005335559E-08   3.44708970349319E-17   3.00000000000000E+02  -7.74489304615874E-11
      3.00000000000000E+02  -4.83920639529511E-17   3.00000000000000E+02   3.00000001793860E+02   3.00000168419101E+02
      6.92920000677684E-10
      0.00000000000000E+00   0.00000000000000E+00   0.00000000000000E+00  -4.97412595808662E-08  -1.77339100680854E-08
      0.00000000000000E+00  -6.74751696489516E-08  -5.01043086741258E-17   3.00000000000000E+02  -1.83736934096483E-10
      0.00000000000000E+00   0.00000000000000E+00   0.00000000000000E+00  -2.45811938920464E-10  -5.56335800283051E-11
     -5.15350927548007E-12  -3.06599028224249E-10   1.31864713362497E-17   3.00000000000000E+02  -1.39313559800463E-11
      0.00000000000000E+00   0.00000000000000E+00   0.00000000000000E+00  -2.77227716811477E-10   2.50202627517408E-12
     -1.23550570005599E-09  -1.51023139059229E-09  -1.34499238752285E-18   3.00000000000000E+02  -1.92533101057242E-10
      7.34972441082730E-01   7.34972441082730E-01   0.00000000000000E+00   3.47359107128846E-09   6.38964409937357E-08
      1.92196800274396E-09   6.92920000677681E-08   3.82628297253990E-17   3.00000000000000E+02  -1.48721849717540E-10
      3.00000000000000E+02  -7.60055146609767E-17   3.00000000000000E+02   3.00000002700038E+02   3.00000283659533E+02
      7.82991993225094E-10
      0.00000000000000E+00   0.00000000000000E+00   0.00000000000000E+00  -5.32801382386493E-08  -1.97667832066558E-08
      0.00000000000000E+00  -7.30469214453051E-08  -5.66837904381583E-17   3.00000000000000E+02  -5.45031079660700E-10
      0.00000000000000E+00   0.00000000000000E+00   0.00000000000000E+00  -4.59374335004935E-10  -9.81652834682298E-11
     -5.39405259817283E-11  -6.11480144454893E-10   1.31376603806458E-17   3.00000000000000E+02  -4.07316769901331E-11
      0.00000000000000E+00   0.00000000000000E+00   0.00000000000000E+00  -5.50030384398618E-10   8.73177880114884E-12
     -4.09949912715171E-09  -4.64079773274918E-09  -1.20724810219236E-18   3.00000000000000E+02  -6.89168523395237E-10
      9.32312683683667E-01   9.32312683683667E-01   0.00000000000000E+00   3.62469466724859E-09   6.84804141529354E-08
      6.19409050232518E-09   7.82991993225092E-08   4.47533781597051E-17   3.00000000000000E+02  -4.82623080962051E-10
      3.00000000000000E+02  -1.65415445355640E-16   3.00000000000000E+02   3.00000008272591E+02   3.00001006509853E+02
      9.27107181300950E-10
      0.00000000000000E+00   0.00000000000000E+00   0.00000000000000E+00  -5.11276183345716E-08  -1.97269515390152E-08
      0.00000000000000E+00  -7.08545698735869E-08  -6.68950101015242E-17   3.00000000000000E+02  -3.43256205749075E-09
      0.00000000000000E+00   0.00000000000000E+00   0.00000000000000E+00  -5.98735109417280E-10  -4.92219068506523E-11
     -2.29897549062919E-09  -2.94693250689712E-09   1.30555774578195E-17   3.00000000000000E+02  -2.22093639207930E-10
      0.00000000000000E+00   0.00000000000000E+00   0.00000000000000E+00  -7.33954269217947E-10   4.27033390399841E-11
     -1.82179648194329E-08  -1.89092157496109E-08  -8.96681532522700E-19   3.00000000000000E+02  -3.88476790149994E-09
      1.23857592094456E+00   1.23857592094456E+00   0.00000000000000E+00   3.43107426041831E-09   6.60486767712355E-08
      2.32309670984410E-08   9.27107181300948E-08   5.47361141762274E-17   3.00000000000000E+02  -2.17876412988986E-09
      3.00000000000000E+02  -1.05668532411248E-15   3.00000000000000E+02   3.00000051212696E+02   3.00005470080274E+02
      1.15769148222232E-09
      0.00000000000000E+00   0.00000000000000E+00   0.00000000000000E+00  -3.45409663240496E-08  -1.38739671505255E-08
      0.00000000000000E+00  -4.84149334745751E-08  -7.80587336909139E-17   3.00000000000000E+02  -1.95552641572387E-08
      0.00000000000000E+00   0.00000000000000E+00   0.00000000000000E+00  -4.15072502845028E-10   1.16275704315653E-09
     -2.70239203789091E-08  -2.62762358385976E-08   1.31072642199861E-17   3.00000000000000E+02  -1.00736775027971E-09
      0.00000000000000E+00   0.00000000000000E+00   0.00000000000000E+00  -4.57557133127117E-10   1.03740528898312E-10
     -4.07241623048301E-08  -4.10779789090589E-08  -6.60429447798103E-19   3.00000000000000E+02  -1.13171198469793E-08
      1.57320734510431E+00   1.57320734510431E+00   0.00000000000000E+00   2.34995223583858E-09   4.60453142721576E-08
      6.73738817142357E-08   1.15769148222232E-07   6.56118989187259E-17   3.00000000000000E+02  -8.27159019375756E-09
      3.00000000000000E+02  -2.29540191041877E-14   3.00000000000000E+02   3.00000279502003E+02   3.00022090235206E+02
      1.52662636369651E-09
      0.00000000000000E+00   0.00000000000000E+00   0.00000000000000E+00  -1.59740681126430E-08  -7.08354347369673E-09
      0.00000000000000E+00  -2.30576115863397E-08  -8.65654908885981E-17   3.00000000000000E+02  -5.85698502217911E-08
      0.00000000000000E+00   0.00000000000000E+00   0.00000000000000E+00  -1.97614382548091E-10   3.89263070142225E-09
     -7.62531926065512E-08  -7.25581762876771E-08   1.33631645234708E-17   3.00000000000000E+02  -3.48088171032568E-09
      0.00000000000000E+00   0.00000000000000E+00   0.00000000000000E+00  -1.81605811396383E-10   1.52369476608330E-10
     -5.70176121608463E-08  -5.70468484956343E-08  -5.67469444433581E-19   3.00000000000000E+02  -2.03604718784158E-08
      1.82005174459495E+00   1.82005174459495E+00   0.00000000000000E+00   1.08293718673457E-09   2.64631315257319E-08
      1.25116567657185E-07   1.52662636369651E-07   7.37697958095607E-17   3.00000000000000E+02  -1.97053846435061E-08
      3.00000000000000E+02  -4.12209736442544E-13   3.00000000000000E+02   3.00000973632450E+02   3.00054955430995E+02
      2.11692217405522E-09
      0.00000000000000E+00   0.00000000000000E+00   0.00000000000000E+00  -7.78978806189580E-09  -3.75131645263225E-09
      0.00000000000000E+00  -1.15411045145280E-08  -9.33781565304356E-17   3.00000000000000E+02  -1.21573546812500E-07
      0.00000000000000E+00   0.00000000000000E+00   0.00000000000000E+00  -1.01986117722191E-10   7.69146857801384E-09
     -1.38198607456079E-07  -1.30609124995788E-07   1.37365801140541E-17   3.00000000000000E+02  -8.39518056063465E-09
      0.00000000000000E+00   0.00000000000000E+00   0.00000000000000E+00  -8.37632695361236E-11   1.92329058406605E-10
     -6.96505536840714E-08  -6.95419878952009E-08  -5.16817280284816E-19   3.00000000000000E+02  -3.18371907418926E-08
      2.00697431733041E+00   2.00697431733041E+00   0.00000000000000E+00   5.08500707442132E-10   2.44474894255590E-08