DF-ISE text

Info {
  version   = 1.0
  type      = xyplot
  datasets  = [
    "time"
    "gate OuterVoltage" "gate InnerVoltage" "gate QuasiFermiPotential" "gate DisplacementCurrent" "gate eCurrent"
    "gate hCurrent" "gate TotalCurrent" "gate Charge" "gate Temperature" "gate lHeatFlux"
    "source OuterVoltage" "source InnerVoltage" "source QuasiFermiPotential" "source DisplacementCurrent" "source eCurrent"
    "source hCurrent" "source TotalCurrent" "source Charge" "source Temperature" "source lHeatFlux"
    "body OuterVoltage" "body InnerVoltage" "body QuasiFermiPotential" "body DisplacementCurrent" "body eCurrent"
    "body hCurrent" "body TotalCurrent" "body Charge" "body Temperature" "body lHeatFlux"
    "drain OuterVoltage" "drain InnerVoltage" "drain QuasiFermiPotential" "drain DisplacementCurrent" "drain eCurrent"
    "drain hCurrent" "drain TotalCurrent" "drain Charge" "drain Temperature" "drain lHeatFlux"
    "bodytherm Temperature" "bodytherm lHeatFlux" "Tmin" "Tave" "Tmax" ]
  functions = [
    Time
    OuterVoltage InnerVoltage QuasiFermiPotential DisplacementCurrent eCurrent
    hCurrent TotalCurrent Charge Temperature lHeatFlux
    OuterVoltage InnerVoltage QuasiFermiPotential DisplacementCurrent eCurrent
    hCurrent TotalCurrent Charge Temperature lHeatFlux
    OuterVoltage InnerVoltage QuasiFermiPotential DisplacementCurrent eCurrent
    hCurrent TotalCurrent Charge Temperature lHeatFlux
    OuterVoltage InnerVoltage QuasiFermiPotential DisplacementCurrent eCurrent
    hCurrent TotalCurrent Charge Temperature lHeatFlux
    Temperature lHeatFlux MinTemperature AveTemperature MaxTemperature ]
}

Data {
      0.00000000000000E+00
      0.00000000000000E+00   0.00000000000000E+00   0.00000000000000E+00   0.00000000000000E+00   0.00000000000000E+00
      0.00000000000000E+00   0.00000000000000E+00  -2.47780486439482E-17   3.00000000000000E+02   0.00000000000000E+00
      0.00000000000000E+00   0.00000000000000E+00   0.00000000000000E+00   0.00000000000000E+00   1.44231355249783E-22
     -1.43950937045305E-22   2.80418204477672E-25   1.32462570737700E-17   3.00000000000000E+02   0.00000000000000E+00
      0.00000000000000E+00   0.00000000000000E+00   0.00000000000000E+00   0.00000000000000E+00   2.45733566432179E-21
     -2.45770017772105E-21  -3.64513399258042E-25  -1.26681392880835E-18   3.00000000000000E+02   0.00000000000000E+00
      0.00000000000000E+00   0.00000000000000E+00   0.00000000000000E+00   0.00000000000000E+00   1.41760203061150E-22
     -1.41676107866371E-22   8.40951947784731E-26   1.27986054989865E-17   3.00000000000000E+02   0.00000000000000E+00
      3.00000000000000E+02   0.00000000000000E+00   3.00000000000000E+02   3.00000000000016E+02   3.00000000000000E+02
      0.00000000000000E+00
      0.00000000000000E+00   0.00000000000000E+00   0.00000000000000E+00   0.00000000000000E+00   0.00000000000000E+00
      0.00000000000000E+00   0.00000000000000E+00  -2.47781084447079E-17   3.00000000000000E+02   0.00000000000000E+00
      0.00000000000000E+00   0.00000000000000E+00   0.00000000000000E+00   0.00000000000000E+00   5.65828442109362E-17
     -7.36225370542533E-19   5.58466188403936E-17   1.32462230477158E-17   3.00000000000000E+02   0.00000000000000E+00
      0.00000000000000E+00   0.00000000000000E+00   0.00000000000000E+00   0.00000000000000E+00  -9.02395706454851E-17
      5.06204503574191E-19  -8.97333661419109E-17  -1.26671057837367E-18   3.00000000000000E+02   0.00000000000000E+00
     -2.57896991202407E-10  -2.57896991202407E-10   0.00000000000000E+00   0.00000000000000E+00   5.90504454701064E-17
     -2.51636981685884E-17   3.38867473015180E-17   1.27985959753658E-17   3.00000000000000E+02   0.00000000000000E+00
      3.00000000000000E+02   0.00000000000000E+00   3.00000000000000E+02   3.00000000000016E+02   3.00000000000000E+02
      0.00000000000000E+00
      0.00000000000000E+00   0.00000000000000E+00   0.00000000000000E+00   0.00000000000000E+00   0.00000000000000E+00
      0.00000000000000E+00   0.00000000000000E+00  -2.47781084447741E-17   3.00000000000000E+02   0.00000000000000E+00
      0.00000000000000E+00   0.00000000000000E+00   0.00000000000000E+00   0.00000000000000E+00   5.79238177862799E-17
     -1.86445220306446E-18   5.60593655832155E-17   1.32462230476963E-17   3.00000000000000E+02   0.00000000000000E+00
      0.00000000000000E+00   0.00000000000000E+00   0.00000000000000E+00   0.00000000000000E+00  -9.02393967202107E-17
      8.29756592366167E-20  -9.01564210609741E-17  -1.26671057827692E-18   3.00000000000000E+02   0.00000000000000E+00
     -2.57897909649779E-10  -2.57897909649779E-10   0.00000000000000E+00   0.00000000000000E+00   5.60338691909674E-17
     -2.19368137132087E-17   3.40970554777587E-17   1.27985959753548E-17   3.00000000000000E+02   0.00000000000000E+00
      3.00000000000000E+02   0.00000000000000E+00   3.00000000000000E+02   3.00000000000016E+02   3.00000000000000E+02
      0.00000000000000E+00
      0.00000000000000E+00   0.00000000000000E+00   0.00000000000000E+00   0.00000000000000E+00   0.00000000000000E+00
      0.00000000000000E+00   0.00000000000000E+00  -2.47781084557802E-17   3.00000000000000E+02  -1.59930876127309E-18
      0.00000000000000E+00   0.00000000000000E+00   0.00000000000000E+00   0.00000000000000E+00   6.56294725694712E-21
     -1.05308963104371E-20  -3.96794905348998E-21   1.32462230477284E-17   3.00000000000000E+02  -4.31297504007390E-19
      0.00000000000000E+00   0.00000000000000E+00   0.00000000000000E+00   0.00000000000000E+00   2.15676106490303E-20
     -1.75983090261181E-20   3.96930162291218E-21  -1.26671057839692E-18   3.00000000000000E+02  -9.77057849714335E-19
      2.81311007476948E-11   2.81311007476948E-11   0.00000000000000E+00   0.00000000000000E+00   7.72673892453422E-20
     -7.72687418147644E-20  -1.35256942219572E-24   1.27985959864487E-17   3.00000000000000E+02  -1.19456346595958E-18
      3.00000000000000E+02  -2.12207113990688E-19   3.00000000000000E+02   3.00000000000016E+02   3.00000000000001E+02
      2.50000000000000E-10
      0.00000000000000E+00   0.00000000000000E+00   0.00000000000000E+00  -1.85493705823402E-09  -6.25099128220501E-10
      0.00000000000000E+00  -2.48003618645452E-09  -2.53981175023939E-17   3.00000000000000E+02  -1.57785070773273E-11
      0.00000000000000E+00   0.00000000000000E+00   0.00000000000000E+00  -3.00595140303648E-12  -1.83790390433895E-12
     -2.43503206940984E-14  -4.86820562806953E-12   1.32452932303823E-17   3.00000000000000E+02  -5.86338126513772E-13
      0.00000000000000E+00   0.00000000000000E+00   0.00000000000000E+00  -2.79459104740426E-12   2.39891109902697E-14
     -1.23250059840217E-11  -1.50956079204357E-11  -1.27038741341369E-18   3.00000000000000E+02  -1.99175917140736E-12
      1.62876026576665E-02   1.62876026576665E-02   0.00000000000000E+00   1.12345553419159E-10   2.38777940820665E-09
     -1.24961622784788E-13   2.50000000000303E-09   1.34232116854252E-17   3.00000000000000E+02  -5.75682614725079E-12
      3.00000000000000E+02  -4.38561368914082E-18   3.00000000000000E+02   3.00000000067830E+02   3.00000015029371E+02
      4.50000000000000E-10
      0.00000000000000E+00   0.00000000000000E+00   0.00000000000000E+00  -3.33845522575716E-09  -1.12290823048161E-09
      0.00000000000000E+00  -4.46136345623876E-09  -2.62903901936417E-17   3.00000000000000E+02  -2.99434137891326E-11
      0.00000000000000E+00   0.00000000000000E+00   0.00000000000000E+00  -4.89621098872513E-12  -3.07132019219201E-12
     -5.16668859611031E-14  -8.01919806687825E-12   1.32440775574436E-17   3.00000000000000E+02  -1.25157432538483E-12
      0.00000000000000E+00   0.00000000000000E+00   0.00000000000000E+00  -4.39356404421024E-12   5.14948472949091E-14
     -2.62752764974152E-11  -3.06173456943306E-11  -1.27634702041017E-18   3.00000000000000E+02  -4.55411579495448E-12
      3.98882562721439E-02   3.98882562721439E-02   0.00000000000000E+00   2.03988435941254E-10   4.29613227456964E-09
     -1.20710510926010E-13   4.49999999999997E-09   1.43226596566082E-17   3.00000000000000E+02  -1.04708202249860E-11
      3.00000000000000E+02  -1.63399477772820E-17   3.00000000000000E+02   3.00000000155877E+02   3.00000027210508E+02
      6.10000000000000E-10
      0.00000000000000E+00   0.00000000000000E+00   0.00000000000000E+00  -4.52515579189744E-09  -1.52019314620519E-09
      0.00000000000000E+00  -6.04534893810263E-09  -2.72576460237380E-17   3.00000000000000E+02  -4.05492273859244E-11
      0.00000000000000E+00   0.00000000000000E+00   0.00000000000000E+00  -6.22534041668694E-12  -3.72664638049891E-12
     -7.71709020673287E-14  -1.00291576992532E-11   1.32428380197912E-17   3.00000000000000E+02  -1.83563155276241E-12
      0.00000000000000E+00   0.00000000000000E+00   0.00000000000000E+00  -5.43557014277656E-12   7.72323398161589E-14
     -3.92635663951937E-11  -4.46219041981541E-11  -1.28328132700042E-18   3.00000000000000E+02  -7.07871580174711E-12
      6.56809843473680E-02   6.56809843473680E-02   0.00000000000000E+00   2.79249547647322E-10   5.82073180983797E-09
      1.86425147227107E-14   6.10000000000001E-09   1.52980893309472E-17   3.00000000000000E+02  -1.38489127784845E-11
      3.00000000000000E+02  -3.65703593110570E-17   3.00000000000000E+02   3.00000000243221E+02   3.00000035800234E+02
      7.38000000000000E-10
      0.00000000000000E+00   0.00000000000000E+00   0.00000000000000E+00  -5.47433237629220E-09  -1.83756571419656E-09
      0.00000000000000E+00  -7.31189809048876E-09  -2.81935689793206E-17   3.00000000000000E+02  -4.81691338152475E-11
      0.00000000000000E+00   0.00000000000000E+00   0.00000000000000E+00  -7.23414508108736E-12  -4.09437888679217E-12
     -9.95180416350099E-14  -1.14280420095145E-11   1.32416837865320E-17   3.00000000000000E+02  -2.30492244341711E-12
      0.00000000000000E+00   0.00000000000000E+00   0.00000000000000E+00  -6.18953864946954E-12   9.97278260949389E-14
     -5.05840566783070E-11  -5.66738675016816E-11  -1.29030379952199E-18   3.00000000000000E+02  -9.34481835222187E-12
      9.08471740020477E-02   9.08471740020477E-02   0.00000000000000E+00   3.41165451496956E-10   7.03852295600110E-09
      3.11592501868445E-13   7.37999999999993E-09   1.62421889923106E-17   3.00000000000000E+02  -1.62095141695629E-11
      3.00000000000000E+02  -6.33791913785373E-17   3.00000000000000E+02   3.00000000321738E+02   3.00000041817399E+02
      8.40400000000000E-10
      0.00000000000000E+00   0.00000000000000E+00   0.00000000000000E+00  -6.23333558361840E-09  -2.09132572857441E-09
      0.00000000000000E+00  -8.32466131219280E-09  -2.90460142976892E-17   3.00000000000000E+02  -5.36900080316967E-11
      0.00000000000000E+00   0.00000000000000E+00   0.00000000000000E+00  -8.03981940962757E-12  -4.33489897726372E-12
     -1.18574311509130E-13  -1.24932926984004E-11   1.32406564339679E-17   3.00000000000000E+02  -2.67162552861792E-12
      0.00000000000000E+00   0.00000000000000E+00   0.00000000000000E+00  -6.77969317580432E-12   1.18839384331743E-13
     -6.01845413173160E-11  -6.68453951087886E-11  -1.29689938837622E-18   3.00000000000000E+02  -1.12964111682922E-11
      1.13953797265278E-01   1.13953797265278E-01   0.00000000000000E+00   3.92094320087444E-10   8.01113764158496E-09
      7.68038327554564E-13   8.40399999999996E-09   1.71022572520974E-17   3.00000000000000E+02  -1.78981202471406E-11
      3.00000000000000E+02  -9.39723836455103E-17   3.00000000000000E+02   3.00000000389284E+02   3.00000046389300E+02
      9.22320000000000E-10
      0.00000000000000E+00   0.00000000000000E+00   0.00000000000000E+00  -6.84004375716818E-09  -2.29444478308962E-09
      0.00000000000000E+00  -9.13448854025780E-09  -2.97943115989071E-17   3.00000000000000E+02  -5.77930544684768E-11
      0.00000000000000E+00   0.00000000000000E+00   0.00000000000000E+00  -8.70478506970995E-12  -4.51363104021150E-12
     -1.34616687480924E-13  -1.33530327974024E-11   1.32397659444631E-17   3.00000000000000E+02  -2.95749590427370E-12
      0.00000000000000E+00   0.00000000000000E+00   0.00000000000000E+00  -7.26758406809119E-12   1.34865547088174E-13
     -6.82257084236628E-11  -7.53584269446658E-11  -1.30281347486094E-18   3.00000000000000E+02  -1.29428530882621E-11
      1.34389988511283E-01   1.34389988511283E-01   0.00000000000000E+00   4.33944589256050E-10   8.78787709145471E-09
      1.37831928909994E-12   9.22319999999986E-09   1.78573591293049E-17   3.00000000000000E+02  -1.91534463026707E-11
      3.00000000000000E+02  -1.25768082891756E-16   3.00000000000000E+02   3.00000000446127E+02   3.00000049867359E+02
      1.05339200000000E-09
      0.00000000000000E+00   0.00000000000000E+00   0.00000000000000E+00  -7.80938072161161E-09  -2.61987883635502E-09
      0.00000000000000E+00  -1.04292595579666E-08  -3.11612955076889E-17   3.00000000000000E+02  -6.66273498971945E-11
      0.00000000000000E+00   0.00000000000000E+00   0.00000000000000E+00  -9.78556209007526E-12  -4.78723209874910E-12
     -1.62304436294656E-13  -1.47350986251190E-11   1.32381628399856E-17   3.00000000000000E+02  -3.49564845939862E-12
      0.00000000000000E+00   0.00000000000000E+00   0.00000000000000E+00  -8.06350040396369E-12   1.62413994837892E-13
     -8.20242569991294E-11  -8.99253434082552E-11  -1.31391437645912E-18   3.00000000000000E+02  -1.57991124922174E-11
      1.72120571986818E-01   1.72120571986818E-01   0.00000000000000E+00   5.01401327451411E-10   1.00292767606837E-08
      3.24191186479110E-12   1.05339199999999E-08   1.92370470441623E-17   3.00000000000000E+02  -2.21554000050826E-11
      3.00000000000000E+02  -2.02622426008623E-16   3.00000000000000E+02   3.00000000551704E+02   3.00000058094352E+02
      1.15824960000000E-09
      0.00000000000000E+00   0.00000000000000E+00   0.00000000000000E+00  -8.58140675207500E-09  -2.88218347523778E-09
      0.00000000000000E+00  -1.14635902273128E-08  -3.23633400663084E-17   3.00000000000000E+02  -7.23854955903574E-11
      0.00000000000000E+00   0.00000000000000E+00   0.00000000000000E+00  -1.08504702119112E-11  -5.04457424919564E-12
     -1.86786874742965E-13  -1.60818313358498E-11   1.32367406325597E-17   3.00000000000000E+02  -3.90743007726609E-12
      0.00000000000000E+00   0.00000000000000E+00   0.00000000000000E+00  -8.91044628516603E-12   1.86529877207944E-13
     -9.41000249434734E-11  -1.02823941351432E-10  -1.32383098174712E-18   3.00000000000000E+02  -1.82793574812025E-11
      2.05762819489017E-01   2.05762819489017E-01   0.00000000000000E+00   5.59513989347165E-10   1.10168357957022E-08
      6.14621495070269E-12   1.15824960000001E-08   2.04504304154957E-17   3.00000000000000E+02  -2.39591929010021E-11
      3.00000000000000E+02  -2.85082573720022E-16   3.00000000000000E+02   3.00000000640764E+02   3.00000063101452E+02
      1.24213568000000E-09
      0.00000000000000E+00   0.00000000000000E+00   0.00000000000000E+00  -9.19539389352823E-09  -3.09425205160881E-09
      0.00000000000000E+00  -1.22896459451370E-08  -3.33942702892338E-17   3.00000000000000E+02  -7.63207721144958E-11
      0.00000000000000E+00   0.00000000000000E+00   0.00000000000000E+00  -1.18799986090483E-11  -5.28760415427989E-12
     -2.08629522700975E-13  -1.73762322860291E-11   1.32354953648973E-17   3.00000000000000E+02  -4.21771894872939E-12
      0.00000000000000E+00   0.00000000000000E+00   0.00000000000000E+00  -9.78589516642360E-12   2.07813364601795E-13
     -1.04756540775168E-10  -1.14334622576990E-10  -1.33239103926645E-18   3.00000000000000E+02  -2.04363049343399E-11
      2.34995677181436E-01   2.34995677181436E-01   0.00000000000000E+00   6.08214377711538E-10   1.18030416634457E-08
      1.01007588428441E-11   1.24213568000001E-08   2.14911659636028E-17   3.00000000000000E+02  -2.52461866597951E-11
      3.00000000000000E+02  -3.66959151867897E-16   3.00000000000000E+02   3.00000000714951E+02   3.00000066352254E+02
      1.30924454400000E-09
      0.00000000000000E+00   0.00000000000000E+00   0.00000000000000E+00  -9.68332223728195E-09  -3.26584791966207E-09
      0.00000000000000E+00  -1.29491701569440E-08  -3.42632743882089E-17   3.00000000000000E+02  -7.86244360447099E-11
      0.00000000000000E+00   0.00000000000000E+00   0.00000000000000E+00  -1.28734575193272E-11  -5.51800565942318E-12
     -2.28208498705030E-13  -1.86196716774554E-11   1.32344165501650E-17   3.00000000000000E+02  -4.44212005939553E-12
      0.00000000000000E+00   0.00000000000000E+00   0.00000000000000E+00  -1.06810100348637E-11   2.26672684004858E-13
     -1.14201274027584E-10  -1.24655611378443E-10  -1.33960172630718E-18   3.00000000000000E+02  -2.23125141422085E-11
      2.59924032614939E-01   2.59924032614939E-01   0.00000000000000E+00   6.48642571461194E-10   1.24288519207421E-08
      1.49509477966499E-11   1.30924454399999E-08   2.23684595643511E-17   3.00000000000000E+02  -2.60056110303445E-11
      3.00000000000000E+02  -4.44043386024783E-16   3.00000000000000E+02   3.00000000775507E+02   3.00000067830130E+02
      1.36293163520000E-09
      0.00000000000000E+00   0.00000000000000E+00   0.00000000000000E+00  -1.00711487669729E-08  -3.40449498003987E-09
      0.00000000000000E+00  -1.34756437470128E-08  -3.49867425030336E-17   3.00000000000000E+02  -7.94978416899385E-11
      0.00000000000000E+00   0.00000000000000E+00   0.00000000000000E+00  -1.38150635595521E-11  -5.73323472744308E-12
     -2.45718315948587E-13  -1.97940166029438E-11   1.32334911115066E-17   3.00000000000000E+02  -4.59389654139421E-12
      0.00000000000000E+00   0.00000000000000E+00   0.00000000000000E+00  -1.15696063502668E-11   2.43343076806838E-13
     -1.22552325110719E-10  -1.33878588384179E-10  -1.34556892530339E-18   3.00000000000000E+02  -2.39394888385835E-11
      2.80879254965027E-01   2.80879254965027E-01   0.00000000000000E+00   6.81765181527505E-10   1.29271339734478E-08
      2.04171970246246E-11   1.36293163519999E-08   2.30988203168304E-17   3.00000000000000E+02  -2.62820503207072E-11
      3.00000000000000E+02  -5.13824158675139E-16   3.00000000000000E+02   3.00000000823992E+02   3.00000067775079E+02
      1.44883098112000E-09
      0.00000000000000E+00   0.00000000000000E+00   0.00000000000000E+00  -1.06892692281511E-08  -3.62561947873077E-09
      0.00000000000000E+00  -1.43148887068818E-08  -3.62163820798723E-17   3.00000000000000E+02  -8.20843217049645E-11
      0.00000000000000E+00   0.00000000000000E+00   0.00000000000000E+00  -1.55426371541337E-11  -6.12060102202241E-12
     -2.79668574878735E-13  -2.19429067510348E-11   1.32318279904907E-17   3.00000000000000E+02  -4.85578300300208E-12
      0.00000000000000E+00   0.00000000000000E+00   0.00000000000000E+00  -1.32818407403927E-11   2.75154266130170E-13
     -1.38471511092893E-10  -1.51478197567155E-10  -1.35546555364870E-18   3.00000000000000E+02  -2.69767094607746E-11
      3.16893931608586E-01   3.16893931608586E-01   0.00000000000000E+00   7.32338272589959E-10   1.37222208590128E-08
      3.37506795973066E-11   1.44883098112001E-08   2.43400196430303E-17   3.00000000000000E+02  -2.76706886195328E-11
      3.00000000000000E+02  -6.49636711628592E-16   3.00000000000000E+02   3.00000000909319E+02   3.00000069579376E+02
      1.51755045785600E-09
      0.00000000000000E+00   0.00000000000000E+00   0.00000000000000E+00  -1.11762396280627E-08  -3.80599925121926E-09
      0.00000000000000E+00  -1.49822388792819E-08  -3.72459536959904E-17   3.00000000000000E+02  -7.92106666537894E-11
      0.00000000000000E+00   0.00000000000000E+00   0.00000000000000E+00  -1.74661165151991E-11  -6.54411358343580E-12
     -3.13547186178328E-13  -2.43237772848132E-11   1.32303358664470E-17   3.00000000000000E+02  -4.94863008495558E-12
      0.00000000000000E+00   0.00000000000000E+00   0.00000000000000E+00  -1.52946989963047E-11   3.06058847298175E-13
     -1.53953281844224E-10  -1.68941921993230E-10  -1.36343359973307E-18   3.00000000000000E+02  -2.98288707482610E-11
      3.47388403238780E-01   3.47388403238780E-01   0.00000000000000E+00   7.74977452547699E-10   1.43501995825684E-08
      5.03275434439312E-11   1.51755045785600E-08   2.53790514292764E-17   3.00000000000000E+02  -2.66830085358552E-11
      3.00000000000000E+02  -7.75581633781399E-16   3.00000000000000E+02   3.00000000973702E+02   3.00000065098971E+02
      1.57252603924480E-09
      0.00000000000000E+00   0.00000000000000E+00   0.00000000000000E+00  -1.15619589858029E-08  -3.95071714931614E-09
      0.00000000000000E+00  -1.55126761351191E-08  -3.80987720854147E-17   3.00000000000000E+02  -7.44206361192858E-11
      0.00000000000000E+00   0.00000000000000E+00   0.00000000000000E+00  -1.94162920898644E-11  -6.96711571182795E-12
     -3.46811834451241E-13  -2.67302196361436E-11   1.32290115674180E-17   3.00000000000000E+02  -4.93583332572257E-12
      0.00000000000000E+00   0.00000000000000E+00   0.00000000000000E+00  -1.74171943056877E-11   3.35635326082750E-13
     -1.68772478713395E-10  -1.85854037693000E-10  -1.36969748092246E-18   3.00000000000000E+02  -3.24837101748448E-11
      3.72835604364897E-01   3.72835604364897E-01   0.00000000000000E+00   8.08036656252037E-10   1.48481319409434E-08
      6.90917952528122E-11   1.57252603924482E-08   2.62394579989192E-17   3.00000000000000E+02  -2.53491824788815E-11
      3.00000000000000E+02  -8.88369714866753E-16   3.00000000000000E+02   3.00000001023468E+02   3.00000059463437E+02
      1.66048696946688E-09
      0.00000000000000E+00   0.00000000000000E+00   0.00000000000000E+00  -1.21717990194246E-08  -4.17892655875834E-09
      0.00000000000000E+00  -1.63507255781830E-08  -3.95369971170776E-17   3.00000000000000E+02  -6.84741979051404E-11
      0.00000000000000E+00   0.00000000000000E+00   0.00000000000000E+00  -2.34025584522348E-11  -7.81556079674911E-12
     -4.21900937104849E-13  -3.16400201860888E-11   1.32264669862921E-17   3.00000000000000E+02  -4.92213012239630E-12
      0.00000000000000E+00   0.00000000000000E+00   0.00000000000000E+00  -2.19234165174700E-11   4.00052342178898E-13
     -2.00980732124542E-10  -2.22504096299833E-10  -1.37888923412170E-18   3.00000000000000E+02  -3.81302608711723E-11
      4.16019173058581E-01   4.16019173058581E-01   0.00000000000000E+00   8.55790633216782E-10   1.56344747969406E-08
      1.14604264511529E-10   1.66048696946689E-08   2.76894193649072E-17   3.00000000000000E+02  -2.52384183843691E-11
      3.00000000000000E+02  -1.10400751053203E-15   3.00000000000000E+02   3.00000001118252E+02   3.00000053936243E+02
      1.73085571364455E-09
      0.00000000000000E+00   0.00000000000000E+00   0.00000000000000E+00  -1.26452870795333E-08  -4.36331094925563E-09
      0.00000000000000E+00  -1.70085980287890E-08  -4.07338708005862E-17   3.00000000000000E+02  -6.11344345346017E-11
      0.00000000000000E+00   0.00000000000000E+00   0.00000000000000E+00  -2.80550866159845E-11  -8.79477166115427E-12
     -5.07454457605909E-13  -3.73573127347447E-11   1.32240352295532E-17   3.00000000000000E+02  -4.88211349567254E-12
      0.00000000000000E+00   0.00000000000000E+00   0.00000000000000E+00  -2.73406424070635E-11   4.69599685556871E-13
     -2.35730752200042E-10  -2.62601794921549E-10  -1.38510465680344E-18   3.00000000000000E+02  -4.40644995410887E-11
      4.52120705465344E-01   4.52120705465344E-01   0.00000000000000E+00   8.92624235511381E-10   1.62455953652330E-08
      1.70337535700940E-10   1.73085571364453E-08   2.88949402278364E-17   3.00000000000000E+02  -2.47270002054147E-11
      3.00000000000000E+02  -1.30139549439394E-15   3.00000000000000E+02   3.00000001205276E+02   3.00000062529116E+02
      1.78715070898668E-09
      0.00000000000000E+00   0.00000000000000E+00   0.00000000000000E+00  -1.30131319971005E-08  -4.51045574761653E-09
      0.00000000000000E+00  -1.75235877447171E-08  -4.17203610910525E-17   3.00000000000000E+02  -5.60887746448337E-11
      0.00000000000000E+00   0.00000000000000E+00   0.00000000000000E+00  -3.30211005803624E-11  -9.83177082599465E-12
     -6.01257983865104E-13  -4.34541293902222E-11   1.32217523752626E-17   3.00000000000000E+02  -4.89679133116063E-12
      0.00000000000000E+00   0.00000000000000E+00   0.00000000000000E+00  -3.32359761636110E-11   5.41845358979787E-13
     -2.71771084954985E-10  -3.04465215759616E-10  -1.38891592719449E-18   3.00000000000000E+02  -5.01230604731723E-11
      4.81934805955596E-01   4.81934805955596E-01   0.00000000000000E+00   9.19409179548055E-10   1.67198642474624E-08
      2.32233662856344E-10   1.78715070898668E-08   2.98875246429843E-17   3.00000000000000E+02  -2.57129241916126E-11
      3.00000000000000E+02  -1.47651941521294E-15   3.00000000000000E+02   3.00000001291542E+02   3.00000071334332E+02
      1.87722270153409E-09
      0.00000000000000E+00   0.00000000000000E+00   0.00000000000000E+00  -1.35714119928131E-08  -4.74145354012289E-09
      0.00000000000000E+00  -1.83128655329360E-08  -4.33698373788568E-17   3.00000000000000E+02  -5.51582322908479E-11
      0.00000000000000E+00   0.00000000000000E+00   0.00000000000000E+00  -4.33730609430271E-11  -1.19687006683129E-11
     -8.45984893606007E-13  -5.61877465049461E-11   1.32169759681040E-17   3.00000000000000E+02  -5.33899443372703E-12
      0.00000000000000E+00   0.00000000000000E+00   0.00000000000000E+00  -4.57195293091521E-11   7.16090470376848E-13
     -3.58170297061190E-10  -4.03173735899966E-10  -1.39068612541778E-18   3.00000000000000E+02  -6.48222568481758E-11
      5.31800390172792E-01   5.31800390172792E-01   0.00000000000000E+00   9.56369143638632E-10   1.74387070766322E-08
      3.77150795070076E-10   1.87722270153409E-08   3.15435475361706E-17   3.00000000000000E+02  -3.21746949891198E-11
      3.00000000000000E+02  -1.80667831672610E-15   2.99999993723395E+02   3.00000001512073E+02   3.00000092695022E+02
      1.94928029557201E-09
      0.00000000000000E+00   0.00000000000000E+00   0.00000000000000E+00  -1.39797650262286E-08  -4.92589678280509E-09
      0.00000000000000E+00  -1.89056618090337E-08  -4.47321338825105E-17   3.00000000000000E+02  -5.84932440872245E-11
      0.00000000000000E+00   0.00000000000000E+00   0.00000000000000E+00  -5.49872926368122E-11  -1.43530405327302E-11
     -1.16436404615293E-12  -7.05046972156953E-11   1.32121492255572E-17   3.00000000000000E+02  -6.07954397180276E-12
      0.00000000000000E+00   0.00000000000000E+00   0.00000000000000E+00  -5.99276232061224E-11   9.17830412570147E-13
     -4.57626656677291E-10  -5.16636449470843E-10  -1.38790972608054E-18   3.00000000000000E+02  -8.17518125370189E-11
      5.72963186949309E-01   5.72963186949309E-01   0.00000000000000E+00   9.81293174077873E-10   1.79644727413670E-08
      5.47037040275302E-10   1.94928029557202E-08   3.29078943830340E-17   3.00000000000000E+02  -4.10216501945340E-11
      3.00000000000000E+02  -2.10627055186118E-15   2.99999986033928E+02   3.00000001770212E+02   3.00000117303720E+02
      2.00692637080236E-09
      0.00000000000000E+00   0.00000000000000E+00   0.00000000000000E+00  -1.42744986705918E-08  -5.07119495250316E-09
      0.00000000000000E+00  -1.93456936230949E-08  -4.58473371924906E-17   3.00000000000000E+02  -6.54546787975740E-11
      0.00000000000000E+00   0.00000000000000E+00   0.00000000000000E+00  -6.67050527180822E-11  -1.67463537454980E-11
     -1.55446292905773E-12  -8.50058693926378E-11   1.32074783108533E-17   3.00000000000000E+02  -7.03288827185325E-12
      0.00000000000000E+00   0.00000000000000E+00   0.00000000000000E+00  -7.44131948498681E-11   1.13765482955820E-12
     -5.65288675515851E-10  -6.38564215536161E-10  -1.38217150419594E-18   3.00000000000000E+02  -1.00166751531917E-10
      6.06619341498711E-01   6.06619341498711E-01   0.00000000000000E+00   9.97171185449408E-10   1.83439272731816E-08
      7.28165249392684E-10   2.00692637080237E-08   3.40220303858332E-17   3.00000000000000E+02  -5.17159860269023E-11
      3.00000000000000E+02  -2.37065408999993E-15   2.99999981291765E+02   3.00000002052492E+02   3.00000144064757E+02
      2.05304323098663E-09
      0.00000000000000E+00   0.00000000000000E+00   0.00000000000000E+00  -1.44849686339359E-08  -5.18453600870970E-09
      0.00000000000000E+00  -1.96695046426456E-08  -4.67544329879894E-17   3.00000000000000E+02  -7.45154718390834E-11
      0.00000000000000E+00   0.00000000000000E+00   0.00000000000000E+00  -7.76403458289643E-11  -1.89687411606733E-11
     -2.00432475943529E-12  -9.86134117490729E-11   1.32031389230888E-17   3.00000000000000E+02  -8.09823792452559E-12
      0.00000000000000E+00   0.00000000000000E+00   0.00000000000000E+00  -8.80458615240211E-11   1.36444341538190E-12
     -6.75632837362642E-10  -7.62314255471281E-10  -1.37490246968485E-18   3.00000000000000E+02  -1.19167308675160E-10
      6.33958049287951E-01   6.33958049287951E-01   0.00000000000000E+00   1.00703930844575E-09   1.86151158894789E-08
      9.08277111941358E-10   2.05304323098660E-08   3.49261965345855E-17   3.00000000000000E+02  -6.30743853574127E-11
      3.00000000000000E+02  -2.59913041605902E-15   2.99999979024394E+02   3.00000002341869E+02   3.00000171660805E+02
      2.12683020728147E-09
      0.00000000000000E+00   0.00000000000000E+00   0.00000000000000E+00  -1.47635267971424E-08  -5.34853129301583E-09
      0.00000000000000E+00  -2.01120580901582E-08  -4.82384409415282E-17   3.00000000000000E+02  -9.98071421461358E-11
      0.00000000000000E+00   0.00000000000000E+00   0.00000000000000E+00  -9.59347081080607E-11  -2.26298166425883E-11
     -3.21001843412102E-12  -1.21774543184770E-10   1.31945863702235E-17   3.00000000000000E+02  -1.08244878385684E-11
      0.00000000000000E+00   0.00000000000000E+00   0.00000000000000E+00  -1.11021460922634E-10   1.88349269272312E-12
     -9.25331471241898E-10  -1.03446943947181E-09  -1.35600147727092E-18   3.00000000000000E+02  -1.63842225602545E-10
      6.78568979602677E-01   6.78568979602677E-01   0.00000000000000E+00   1.01781699992712E-09   1.89756763934413E-08