DF-ISE text

Info {
  version   = 1.0
  type      = xyplot
  datasets  = [
    "time"
    "gate OuterVoltage" "gate InnerVoltage" "gate QuasiFermiPotential" "gate DisplacementCurrent" "gate eCurrent"
    "gate hCurrent" "gate TotalCurrent" "gate Charge" "gate Temperature" "gate lHeatFlux"
    "source OuterVoltage" "source InnerVoltage" "source QuasiFermiPotential" "source DisplacementCurrent" "source eCurrent"
    "source hCurrent" "source TotalCurrent" "source Charge" "source Temperature" "source lHeatFlux"
    "body OuterVoltage" "body InnerVoltage" "body QuasiFermiPotential" "body DisplacementCurrent" "body eCurrent"
    "body hCurrent" "body TotalCurrent" "body Charge" "body Temperature" "body lHeatFlux"
    "drain OuterVoltage" "drain InnerVoltage" "drain QuasiFermiPotential" "drain DisplacementCurrent" "drain eCurrent"
    "drain hCurrent" "drain TotalCurrent" "drain Charge" "drain Temperature" "drain lHeatFlux"
    "bodytherm Temperature" "bodytherm lHeatFlux" "Tmin" "Tave" "Tmax" ]
  functions = [
    Time
    OuterVoltage InnerVoltage QuasiFermiPotential DisplacementCurrent eCurrent
    hCurrent TotalCurrent Charge Temperature lHeatFlux
    OuterVoltage InnerVoltage QuasiFermiPotential DisplacementCurrent eCurrent
    hCurrent TotalCurrent Charge Temperature lHeatFlux
    OuterVoltage InnerVoltage QuasiFermiPotential DisplacementCurrent eCurrent
    hCurrent TotalCurrent Charge Temperature lHeatFlux
    OuterVoltage InnerVoltage QuasiFermiPotential DisplacementCurrent eCurrent
    hCurrent TotalCurrent Charge Temperature lHeatFlux
    Temperature lHeatFlux MinTemperature AveTemperature MaxTemperature ]
}

Data {
      0.00000000000000E+00
      0.00000000000000E+00   0.00000000000000E+00   0.00000000000000E+00   0.00000000000000E+00   0.00000000000000E+00
      0.00000000000000E+00   0.00000000000000E+00  -2.47780486439482E-17   3.00000000000000E+02   0.00000000000000E+00
      0.00000000000000E+00   0.00000000000000E+00   0.00000000000000E+00   0.00000000000000E+00   1.53262579981332E-22
     -1.53021442288022E-22   2.41137693310374E-25   1.32462570737700E-17   3.00000000000000E+02   0.00000000000000E+00
      0.00000000000000E+00   0.00000000000000E+00   0.00000000000000E+00   0.00000000000000E+00   2.45733566431722E-21
     -2.45766085083888E-21  -3.25186521662143E-25  -1.26681392880835E-18   3.00000000000000E+02   0.00000000000000E+00
      0.00000000000000E+00   0.00000000000000E+00   0.00000000000000E+00   0.00000000000000E+00   1.41760499464649E-22
     -1.41676450636298E-22   8.40488283510933E-26   1.27986054989865E-17   3.00000000000000E+02   0.00000000000000E+00
      3.00000000000000E+02   0.00000000000000E+00   3.00000000000000E+02   3.00000000000016E+02   3.00000000000000E+02
      0.00000000000000E+00
      0.00000000000000E+00   0.00000000000000E+00   0.00000000000000E+00   0.00000000000000E+00   0.00000000000000E+00
      0.00000000000000E+00   0.00000000000000E+00  -2.47781084447079E-17   3.00000000000000E+02   0.00000000000000E+00
      0.00000000000000E+00   0.00000000000000E+00   0.00000000000000E+00   0.00000000000000E+00   5.65835537893444E-17
     -7.36940180994936E-19   5.58466136083494E-17   1.32462230477159E-17   3.00000000000000E+02   0.00000000000000E+00
      0.00000000000000E+00   0.00000000000000E+00   0.00000000000000E+00   0.00000000000000E+00  -9.02395637920350E-17
      5.06205030160335E-19  -8.97333587618747E-17  -1.26671057837367E-18   3.00000000000000E+02   0.00000000000000E+00
     -2.57897450426093E-10  -2.57897450426093E-10   0.00000000000000E+00   0.00000000000000E+00   5.90503846701759E-17
     -2.51636395166497E-17   3.38867451535262E-17   1.27985959753658E-17   3.00000000000000E+02   0.00000000000000E+00
      3.00000000000000E+02   0.00000000000000E+00   3.00000000000000E+02   3.00000000000016E+02   3.00000000000000E+02
      0.00000000000000E+00
      0.00000000000000E+00   0.00000000000000E+00   0.00000000000000E+00   0.00000000000000E+00   0.00000000000000E+00
      0.00000000000000E+00   0.00000000000000E+00  -2.47781084447741E-17   3.00000000000000E+02   0.00000000000000E+00
      0.00000000000000E+00   0.00000000000000E+00   0.00000000000000E+00   0.00000000000000E+00   5.79258571286841E-17
     -1.86624713070864E-18   5.60596099979755E-17   1.32462230476962E-17   3.00000000000000E+02   0.00000000000000E+00
      0.00000000000000E+00   0.00000000000000E+00   0.00000000000000E+00   0.00000000000000E+00  -9.02393899482697E-17
      8.25655959655293E-20  -9.01568243523042E-17  -1.26671057827682E-18   3.00000000000000E+02   0.00000000000000E+00
     -2.57898368873465E-10  -2.57898368873465E-10   0.00000000000000E+00   0.00000000000000E+00   5.60350388515240E-17
     -2.19378244971948E-17   3.40972143543292E-17   1.27985959753548E-17   3.00000000000000E+02   0.00000000000000E+00
      3.00000000000000E+02   0.00000000000000E+00   3.00000000000000E+02   3.00000000000016E+02   3.00000000000000E+02
      0.00000000000000E+00
      0.00000000000000E+00   0.00000000000000E+00   0.00000000000000E+00   0.00000000000000E+00   0.00000000000000E+00
      0.00000000000000E+00   0.00000000000000E+00  -2.47781084557802E-17   3.00000000000000E+02  -5.90332532824637E-19
      0.00000000000000E+00   0.00000000000000E+00   0.00000000000000E+00   0.00000000000000E+00   6.58212698702884E-21
     -1.05510909054402E-20  -3.96896391841140E-21   1.32462230477284E-17   3.00000000000000E+02  -4.31297504007390E-19
      0.00000000000000E+00   0.00000000000000E+00   0.00000000000000E+00   0.00000000000000E+00   2.15582523929502E-20
     -1.75896082743708E-20   3.96864411857935E-21  -1.26671057839692E-18   3.00000000000000E+02  -9.27987298318141E-19
      2.81313953311853E-11   2.81313953311853E-11   0.00000000000000E+00   0.00000000000000E+00   7.72967717900195E-20
     -7.72964519901874E-20   3.19799832041686E-25   1.27985959864488E-17   3.00000000000000E+02  -1.19456346595958E-18
      3.00000000000000E+02  -2.12207113990688E-19   3.00000000000000E+02   3.00000000000016E+02   3.00000000000001E+02
      6.25000000000000E-11
      0.00000000000000E+00   0.00000000000000E+00   0.00000000000000E+00  -1.29932464328667E-09  -4.40250039321095E-10
      0.00000000000000E+00  -1.73957468260776E-09  -2.48868318734432E-17   3.00000000000000E+02  -7.22475563523131E-12
      0.00000000000000E+00   0.00000000000000E+00   0.00000000000000E+00  -2.72043648839710E-12  -8.69918939968324E-13
     -8.62858278287598E-15  -3.59898401114830E-12   1.32460139793796E-17   3.00000000000000E+02  -1.72664005331213E-13
      0.00000000000000E+00   0.00000000000000E+00   0.00000000000000E+00  -2.70580263066313E-12   7.67891399049894E-15
     -4.12820968223943E-12  -6.82633339891207E-12  -1.26712659692116E-18   3.00000000000000E+02  -4.19690514844037E-13
      2.84621626798498E-03   2.84621626798498E-03   0.00000000000000E+00   7.81686311562082E-11   1.67197490431834E-09
     -1.43535456721514E-13   1.75000000001782E-09   1.29079444909848E-17   3.00000000000000E+02  -3.28614068982335E-12
      3.00000000000000E+02  -2.12207113990688E-19   3.00000000000000E+02   3.00000000015042E+02   3.00000008540156E+02
      1.62500000000000E-10
      0.00000000000000E+00   0.00000000000000E+00   0.00000000000000E+00  -3.37739468331422E-09  -1.14154815301377E-09
      0.00000000000000E+00  -4.51894283632798E-09  -2.53387261570760E-17   3.00000000000000E+02  -2.46351680736792E-11
      0.00000000000000E+00   0.00000000000000E+00   0.00000000000000E+00  -6.36089556008434E-12  -2.51215417904971E-12
     -3.23467282571828E-14  -8.90539646739123E-12   1.32452298780910E-17   3.00000000000000E+02  -7.75078015769005E-13
      0.00000000000000E+00   0.00000000000000E+00   0.00000000000000E+00  -6.17113430357064E-12   3.06551863305995E-14
     -1.60112880874363E-11  -2.21517672046763E-11  -1.26928724055522E-18   3.00000000000000E+02  -2.11978424392423E-12
      1.47108937880173E-02   1.47108937880173E-02   0.00000000000000E+00   2.04107932539221E-10   4.34621594309727E-09
     -3.23875636436714E-13   4.55000000000006E-09   1.33627835195402E-17   3.00000000000000E+02  -9.62359859588812E-12
      3.00000000000000E+02  -3.18310670986032E-19   3.00000000000000E+02   3.00000000069236E+02   3.00000025342003E+02
      3.22500000000000E-10
      0.00000000000000E+00   0.00000000000000E+00   0.00000000000000E+00  -6.70131759276491E-09  -2.25855777943983E-09
      0.00000000000000E+00  -8.95987537220474E-09  -2.67723062166288E-17   3.00000000000000E+02  -5.64902728323459E-11
      0.00000000000000E+00   0.00000000000000E+00   0.00000000000000E+00  -1.10419831092469E-11  -4.68384660361091E-12
     -8.79913663810002E-14  -1.58138210792388E-11   1.32430436704711E-17   3.00000000000000E+02  -2.19319644306972E-12
      0.00000000000000E+00   0.00000000000000E+00   0.00000000000000E+00  -1.02982380791386E-11   8.58901049373167E-14
     -4.40984587418002E-11  -5.43108067160015E-11  -1.27775465525820E-18   3.00000000000000E+02  -6.94395424574358E-12
      5.26767198737457E-02   5.26767198737457E-02   0.00000000000000E+00   4.09628927762144E-10   8.62077539590350E-09
     -4.04323665647144E-13   9.03000000000000E-09   1.48070172014158E-17   3.00000000000000E+02  -2.03797314090051E-11
      3.00000000000000E+02  -3.89046375649589E-18   3.00000000000000E+02   3.00000000221890E+02   3.00000053313571E+02
      3.86500000000000E-10
      0.00000000000000E+00   0.00000000000000E+00   0.00000000000000E+00  -8.03069410850960E-09  -2.70458924579044E-09
      0.00000000000000E+00  -1.07352833543000E-08  -2.74593643513039E-17   3.00000000000000E+02  -6.57461581691292E-11
      0.00000000000000E+00   0.00000000000000E+00   0.00000000000000E+00  -1.28685891955131E-11  -5.28482558020746E-12
     -1.13222187057868E-13  -1.82666369627784E-11   1.32420233440234E-17   3.00000000000000E+02  -2.72740108500026E-12
      0.00000000000000E+00   0.00000000000000E+00   0.00000000000000E+00  -1.18652079451900E-11   1.10769881475683E-13
     -5.66955706735754E-11  -6.84500087372897E-11  -1.28202136926831E-18   3.00000000000000E+02  -9.18847381453770E-12
      7.10387489735955E-02   7.10387489735955E-02   0.00000000000000E+00   4.96203352732817E-10   1.03261167505321E-08
     -3.20103264815878E-13   1.08220000000001E-08   1.54993623765490E-17   3.00000000000000E+02  -2.29715242188462E-11
      3.00000000000000E+02  -6.11863845339804E-18   3.00000000000000E+02   3.00000000285491E+02   3.00000059988264E+02
      4.88900000000000E-10
      0.00000000000000E+00   0.00000000000000E+00   0.00000000000000E+00  -1.01572445599370E-08  -3.41705895872105E-09
      0.00000000000000E+00  -1.35743035186581E-08  -2.88493730316145E-17   3.00000000000000E+02  -8.35984426112168E-11
      0.00000000000000E+00   0.00000000000000E+00   0.00000000000000E+00  -1.54760918870328E-11  -6.02881677343287E-12
     -1.59105681321367E-13  -2.16640143417870E-11   1.32400565900112E-17   3.00000000000000E+02  -3.68348344429209E-12
      0.00000000000000E+00   0.00000000000000E+00   0.00000000000000E+00  -1.39849064848364E-11   1.55848692981167E-13
     -7.94034092082307E-11  -9.32324670000859E-11  -1.29128300793509E-18   3.00000000000000E+02  -1.34393043819217E-11
      1.08534216282497E-01   1.08534216282497E-01   0.00000000000000E+00   6.34572088656300E-10   1.30544631630516E-08
      1.64748292091181E-13   1.36892000000000E-08   1.69005994495384E-17   3.00000000000000E+02  -2.89682542308628E-11
      3.00000000000000E+02  -1.38288302617258E-17   3.00000000000000E+02   3.00000000411295E+02   3.00000075769774E+02
      5.70820000000000E-10
      0.00000000000000E+00   0.00000000000000E+00   0.00000000000000E+00  -1.18568470103091E-08  -3.98697747581789E-09
      0.00000000000000E+00  -1.58438244861270E-08  -3.01472991335181E-17   3.00000000000000E+02  -9.58617601139502E-11
      0.00000000000000E+00   0.00000000000000E+00   0.00000000000000E+00  -1.76157795634798E-11  -6.56865862847990E-12
     -1.99791975874384E-13  -2.43842301678341E-11   1.32382636311842E-17   3.00000000000000E+02  -4.43146498297107E-12
      0.00000000000000E+00   0.00000000000000E+00   0.00000000000000E+00  -1.57003541780788E-11   1.95356720110100E-13
     -9.92462862472899E-11  -1.14751283705259E-10  -1.30034253675687E-18   3.00000000000000E+02  -1.72395984367149E-11
      1.43985711510861E-01   1.43985711510861E-01   0.00000000000000E+00   7.51436839716597E-10   1.52303109605474E-08
      1.21219973607728E-12   1.59829600000001E-08   1.82093780390908E-17   3.00000000000000E+02  -3.27316024137361E-11
      3.00000000000000E+02  -2.40147717332774E-17   3.00000000000000E+02   3.00000000520402E+02   3.00000086458451E+02
      6.36356000000000E-10
      0.00000000000000E+00   0.00000000000000E+00   0.00000000000000E+00  -1.32136956042000E-08  -4.44435902853418E-09
      0.00000000000000E+00  -1.76580546327342E-08  -3.13045374019289E-17   3.00000000000000E+02  -1.04975983423580E-10
      0.00000000000000E+00   0.00000000000000E+00   0.00000000000000E+00  -1.94328300209654E-11  -7.00886746638928E-12
     -2.35234394130777E-13  -2.66769318814855E-11   1.32366802468826E-17   3.00000000000000E+02  -5.01413502014507E-12
      0.00000000000000E+00   0.00000000000000E+00   0.00000000000000E+00  -1.71671090179424E-11   2.29378070880080E-13
     -1.16298704437131E-10  -1.33236435384193E-10  -1.30867537686094E-18   3.00000000000000E+02  -2.05405737918002E-11
      1.75987626932385E-01   1.75987626932385E-01   0.00000000000000E+00   8.49167625570864E-10   1.69658711077277E-08
      2.92926670133839E-12   1.78179679999999E-08   1.93765325319073E-17   3.00000000000000E+02  -3.55913812007675E-11
      3.00000000000000E+02  -3.56331112242650E-17   3.00000000000000E+02   3.00000000613267E+02   3.00000094758702E+02
      6.88784800000000E-10
      0.00000000000000E+00   0.00000000000000E+00   0.00000000000000E+00  -1.42955028477414E-08  -4.81269176460097E-09
      0.00000000000000E+00  -1.91081946123423E-08  -3.23063571156205E-17   3.00000000000000E+02  -1.11906594041984E-10
      0.00000000000000E+00   0.00000000000000E+00   0.00000000000000E+00  -2.10323418322310E-11  -7.39008173654156E-12
     -2.65885463359704E-13  -2.86883090321323E-11   1.32353088233158E-17   3.00000000000000E+02  -5.47088964057929E-12
      0.00000000000000E+00   0.00000000000000E+00   0.00000000000000E+00  -1.84896963605522E-11   2.58464788924782E-13
     -1.30860247053877E-10  -1.49091478625504E-10  -1.31603977744346E-18   3.00000000000000E+02  -2.33651174104109E-11
      2.04021163174604E-01   2.04021163174604E-01   0.00000000000000E+00   9.30864196226843E-10   1.83497699596163E-08
      5.34024415680764E-12   1.92859744000000E-08   2.03870880697482E-17   3.00000000000000E+02  -3.78038739222937E-11
      3.00000000000000E+02  -4.76581810170669E-17   3.00000000000000E+02   3.00000000691139E+02   3.00000101121862E+02
      7.30727840000000E-10
      0.00000000000000E+00   0.00000000000000E+00   0.00000000000000E+00  -1.51572618535400E-08  -5.10995731722433E-09
      0.00000000000000E+00  -2.02672191707643E-08  -3.31564258999886E-17   3.00000000000000E+02  -1.16974160605447E-10
      0.00000000000000E+00   0.00000000000000E+00   0.00000000000000E+00  -2.24632353211727E-11  -7.72755583352448E-12
     -2.92276720073679E-13  -3.04830678747709E-11   1.32341369414829E-17   3.00000000000000E+02  -5.82551278993117E-12
      0.00000000000000E+00   0.00000000000000E+00   0.00000000000000E+00  -1.97102871076606E-11   2.83229269675811E-13
     -1.43250223522652E-10  -1.62677281360637E-10  -1.32237134899352E-18   3.00000000000000E+02  -2.57601110551225E-11
      2.28067662784265E-01   2.28067662784265E-01   0.00000000000000E+00   9.98887034931522E-10   1.94531333595465E-08
      8.35912552167118E-12   2.04603795199997E-08   2.12446603074993E-17   3.00000000000000E+02  -3.94062254095061E-11
      3.00000000000000E+02  -5.93826240650478E-17   3.00000000000000E+02   3.00000000755364E+02   3.00000105519128E+02
      7.97836704000000E-10
      0.00000000000000E+00   0.00000000000000E+00   0.00000000000000E+00  -1.65314453254155E-08  -5.58757127452314E-09
      0.00000000000000E+00  -2.21190165999386E-08  -3.46408079768077E-17   3.00000000000000E+02  -1.28931379018177E-10
      0.00000000000000E+00   0.00000000000000E+00   0.00000000000000E+00  -2.49420878519856E-11  -8.30529061982492E-12
     -3.39889830551379E-13  -3.35872683023619E-11   1.32320553393132E-17   3.00000000000000E+02  -6.49340473703432E-12
      0.00000000000000E+00   0.00000000000000E+00   0.00000000000000E+00  -2.19001619120623E-11   3.27279866368407E-13
     -1.65250961713340E-10  -1.86823843759034E-10  -1.33354392445776E-18   3.00000000000000E+02  -3.00044622436565E-11
      2.70661031960743E-01   2.70661031960743E-01   0.00000000000000E+00   1.10671108146932E-09   2.12159304916123E-08
      1.67861389183465E-11   2.23394277119999E-08   2.27422965619523E-17   3.00000000000000E+02  -4.40356632780449E-11
      3.00000000000000E+02  -8.49712652270779E-17   3.00000000000000E+02   3.00000000873343E+02   3.00000117299475E+02
      8.51523795200000E-10
      0.00000000000000E+00   0.00000000000000E+00   0.00000000000000E+00  -1.76180665073879E-08  -5.97823756597328E-09
      0.00000000000000E+00  -2.35963040733612E-08  -3.59076249055771E-17   3.00000000000000E+02  -1.32083164659504E-10
      0.00000000000000E+00   0.00000000000000E+00   0.00000000000000E+00  -2.76237234886612E-11  -8.91859869800526E-12
     -3.84485550737131E-13  -3.69268077374036E-11   1.32302123876925E-17   3.00000000000000E+02  -6.91443086855011E-12
      0.00000000000000E+00   0.00000000000000E+00   0.00000000000000E+00  -2.44411299483413E-11   3.67511989180005E-13
     -1.85361766542450E-10  -2.09435384501612E-10  -1.34304534903302E-18   3.00000000000000E+02  -3.37905175403076E-11
      3.07612660911365E-01   3.07612660911365E-01   0.00000000000000E+00   1.20085606159080E-09   2.26129456703347E-08
      2.88645336747661E-11   2.38426662656003E-08   2.40204578669176E-17   3.00000000000000E+02  -4.44800715991168E-11
      3.00000000000000E+02  -1.10736745650762E-16   3.00000000000000E+02   3.00000000963982E+02   3.00000116754393E+02
      8.94473468160000E-10
      0.00000000000000E+00   0.00000000000000E+00   0.00000000000000E+00  -1.84805271276839E-08  -6.29411186723298E-09
      0.00000000000000E+00  -2.47746389949168E-08  -3.69716875481110E-17   3.00000000000000E+02  -1.28986382389443E-10
      0.00000000000000E+00   0.00000000000000E+00   0.00000000000000E+00  -3.02822868424618E-11  -9.51662455938609E-12
     -4.26200311097309E-13  -4.02251117129452E-11   1.32285978075117E-17   3.00000000000000E+02  -7.10020320097865E-12
      0.00000000000000E+00   0.00000000000000E+00   0.00000000000000E+00  -2.70957888546333E-11   4.04191963099535E-13
     -2.03701404958706E-10  -2.30393001850239E-10  -1.35088825648335E-18   3.00000000000000E+02  -3.71598016705284E-11
      3.39033134649596E-01   3.39033134649596E-01   0.00000000000000E+00   1.27664418966000E-09   2.37244254872552E-08
      4.41874315646678E-11   2.50452571084799E-08   2.50939779970825E-17   3.00000000000000E+02  -4.28119855828370E-11
      3.00000000000000E+02  -1.35193615538166E-16   3.00000000000000E+02   3.00000001030462E+02   3.00000110441799E+02
      9.28833206528000E-10
      0.00000000000000E+00   0.00000000000000E+00   0.00000000000000E+00  -1.91663423497107E-08  -6.54788918728793E-09
      0.00000000000000E+00  -2.57142315369986E-08  -3.78552218160563E-17   3.00000000000000E+02  -1.22687581456315E-10
      0.00000000000000E+00   0.00000000000000E+00   0.00000000000000E+00  -3.28624441391249E-11  -1.00887676100753E-11
     -4.65023066830515E-13  -4.34162348160308E-11   1.32271977285218E-17   3.00000000000000E+02  -7.12641068479982E-12
      0.00000000000000E+00   0.00000000000000E+00   0.00000000000000E+00  -2.97827275091219E-11   4.37451479552624E-13
     -2.20336734939731E-10  -2.49682010969300E-10  -1.35721877351173E-18   3.00000000000000E+02  -4.01413058132912E-11
      3.65341406884458E-01   3.65341406884458E-01   0.00000000000000E+00   1.33608839424319E-09   2.46093890733692E-08
      6.18523151715557E-11   2.60073297827839E-08   2.59852428610462E-17   3.00000000000000E+02  -4.03122541989702E-11
      3.00000000000000E+02  -1.57501888396413E-16   3.00000000000000E+02   3.00000001078857E+02   3.00000102130210E+02
      9.83808787916801E-10
      0.00000000000000E+00   0.00000000000000E+00   0.00000000000000E+00  -2.02590230599302E-08  -6.94923454294382E-09
      0.00000000000000E+00  -2.72082576028740E-08  -3.93510115963507E-17   3.00000000000000E+02  -1.13280718848370E-10
      0.00000000000000E+00   0.00000000000000E+00   0.00000000000000E+00  -3.80040611812478E-11  -1.12071628611992E-11
     -5.46128488568839E-13  -4.97573525310158E-11   1.32246134060118E-17   3.00000000000000E+02  -7.06277499336034E-12
      0.00000000000000E+00   0.00000000000000E+00   0.00000000000000E+00  -3.53959081564387E-11   5.04313297120721E-13
     -2.53739511406323E-10  -2.88631106265641E-10  -1.36706079515299E-18   3.00000000000000E+02  -4.59530269381187E-11
      4.10206281286840E-01   4.10206281286840E-01   0.00000000000000E+00   1.42301912892235E-09   2.60178945374940E-08
      1.05732395254223E-10   2.75466460616706E-08   2.74934589854918E-17   3.00000000000000E+02  -3.87180279385711E-11
      3.00000000000000E+02  -2.01437602955510E-16   3.00000000000000E+02   3.00000001161961E+02   3.00000093092281E+02
      1.02778925302784E-09
      0.00000000000000E+00   0.00000000000000E+00   0.00000000000000E+00  -2.11176841891191E-08  -7.27408834012217E-09
      0.00000000000000E+00  -2.83917725292413E-08  -4.05996949575135E-17   3.00000000000000E+02  -1.00826181049818E-10
      0.00000000000000E+00   0.00000000000000E+00   0.00000000000000E+00  -4.39062532891243E-11  -1.24735051877287E-11
     -6.33534658408016E-13  -5.70132931352610E-11   1.32222313252350E-17   3.00000000000000E+02  -6.89472448946593E-12
      0.00000000000000E+00   0.00000000000000E+00   0.00000000000000E+00  -4.20928619674805E-11   5.72420929093553E-13
     -2.87792821364647E-10  -3.29313262403034E-10  -1.37429393837892E-18   3.00000000000000E+02  -5.16436039818296E-11
      4.47864886950798E-01   4.47864886950798E-01   0.00000000000000E+00   1.49141081683004E-09   2.71257951345083E-08
      1.60893133441329E-10   2.87780990847796E-08   2.87517575706574E-17   3.00000000000000E+02  -3.57588680909226E-11
      3.00000000000000E+02  -2.42596941106553E-16   3.00000000000000E+02   3.00000001228488E+02   3.00000079149354E+02
      1.06297362511667E-09
      0.00000000000000E+00   0.00000000000000E+00   0.00000000000000E+00  -2.17941197198379E-08  -7.53385128776108E-09
      0.00000000000000E+00  -2.93279710075990E-08  -4.16315812020553E-17   3.00000000000000E+02  -9.09259027287186E-11
      0.00000000000000E+00   0.00000000000000E+00   0.00000000000000E+00  -5.01872537728037E-11  -1.38078784726945E-11
     -7.25925042705768E-13  -6.47210572882039E-11   1.32200586522897E-17   3.00000000000000E+02  -6.73754018701494E-12
      0.00000000000000E+00   0.00000000000000E+00   0.00000000000000E+00  -4.94062491290513E-11   6.40455538853747E-13
     -3.21803644788707E-10  -3.70569438378905E-10  -1.37932746301153E-18   3.00000000000000E+02  -5.71563265503189E-11
      4.79064184829094E-01   4.79064184829094E-01   0.00000000000000E+00   1.54225604532948E-09   2.79975556498698E-08
      2.23449808066866E-10   2.97632615032661E-08   2.97908500127772E-17   3.00000000000000E+02  -3.49482404384207E-11
      3.00000000000000E+02  -2.79706660165602E-16   3.00000000000000E+02   3.00000001289581E+02   3.00000081972805E+02
      1.09112112278774E-09
      0.00000000000000E+00   0.00000000000000E+00   0.00000000000000E+00  -2.23257554854166E-08  -7.74203328262587E-09
      0.00000000000000E+00  -3.00677887680424E-08  -4.24779142163778E-17   3.00000000000000E+02  -8.42875389374371E-11
      0.00000000000000E+00   0.00000000000000E+00   0.00000000000000E+00  -5.65442091901681E-11  -1.51501528817577E-11
     -8.20764872528837E-13  -7.25151269444547E-11   1.32181047960551E-17   3.00000000000000E+02  -6.64110150953297E-12
      0.00000000000000E+00   0.00000000000000E+00   0.00000000000000E+00  -5.69283701234625E-11   7.06636627276870E-13
     -3.54865809573441E-10  -4.11087543069627E-10  -1.38264386155482E-18   3.00000000000000E+02  -6.23963908506904E-11
      5.04681582518425E-01   5.04681582518425E-01   0.00000000000000E+00   1.58035402220539E-09   2.86819440630403E-08
      2.89093352810883E-10   3.05513914380566E-08   3.06424532818778E-17   3.00000000000000E+02  -3.58151236820032E-11
      3.00000000000000E+02  -3.12280452163101E-16   3.00000000000000E+02   3.00000001348277E+02   3.00000089653175E+02
      1.13615711906144E-09
      0.00000000000000E+00   0.00000000000000E+00   0.00000000000000E+00  -2.31514894944875E-08  -8.07374164329398E-09
      0.00000000000000E+00  -3.12252311377815E-08  -4.38841736095445E-17   3.00000000000000E+02  -7.99714701054616E-11
      0.00000000000000E+00   0.00000000000000E+00   0.00000000000000E+00  -6.94892653956379E-11  -1.78616725797109E-11
     -1.04473010416650E-12  -8.83956680795153E-11   1.32142765748546E-17   3.00000000000000E+02  -6.74002144209299E-12
      0.00000000000000E+00   0.00000000000000E+00   0.00000000000000E+00  -7.24726879781176E-11   8.51975454935188E-13
     -4.27151815335864E-10  -4.98772527859047E-10  -1.38536291207040E-18   3.00000000000000E+02  -7.37937853184421E-11
      5.47251370787698E-01   5.47251370787698E-01   0.00000000000000E+00   1.63557565732835E-09   2.97435902249346E-08
      4.33233451457086E-10   3.18123993337200E-08   3.20552599467604E-17   3.00000000000000E+02  -4.17153944133191E-11
      3.00000000000000E+02  -3.72653376093298E-16   3.00000000000000E+02   3.00000001486373E+02   3.00000106417782E+02
      1.15417151757093E-09
      0.00000000000000E+00   0.00000000000000E+00   0.00000000000000E+00  -2.34700966701283E-08  -8.20937663886326E-09
      0.00000000000000E+00  -3.16794733089915E-08  -4.44548602663032E-17   3.00000000000000E+02  -7.84501940387663E-11
      0.00000000000000E+00   0.00000000000000E+00   0.00000000000000E+00  -7.61618824986669E-11  -1.92585996494333E-11
     -1.15813202376332E-12  -9.65786141718635E-11   1.32126012639924E-17   3.00000000000000E+02  -6.82252470443070E-12
      0.00000000000000E+00   0.00000000000000E+00   0.00000000000000E+00  -8.05691004013119E-11   9.20245424287922E-13
     -4.61101713844946E-10  -5.40750568821970E-10  -1.38588590269610E-18   3.00000000000000E+02  -7.90179995037603E-11
      5.64531182611532E-01   5.64531182611532E-01   0.00000000000000E+00   1.65676109847718E-09   3.01531228871701E-08
      5.06918506338029E-10   3.23168024919853E-08   3.26281449050069E-17   3.00000000000000E+02  -4.45720070975223E-11
      3.00000000000000E+02  -3.98188965476771E-16   2.99999997322036E+02   3.00000001549836E+02   3.00000114122043E+02
      1.16858303637851E-09
      0.00000000000000E+00   0.00000000000000E+00   0.00000000000000E+00  -2.37201913704210E-08  -8.31764915373397E-09
      0.00000000000000E+00  -3.20378405241550E-08  -4.49165742075716E-17   3.00000000000000E+02  -7.80392801386162E-11
      0.00000000000000E+00   0.00000000000000E+00   0.00000000000000E+00  -8.21395590328144E-11  -2.05067827779785E-11
     -1.26528736295659E-12  -1.03911629173750E-10   1.32111577457785E-17   3.00000000000000E+02  -6.92414600486715E-12
      0.00000000000000E+00   0.00000000000000E+00   0.00000000000000E+00  -8.78545102056763E-11   9.81892685590356E-13
     -4.91700247748960E-10  -5.78572865269046E-10  -1.38588502667591E-18   3.00000000000000E+02  -8.36945085798691E-11
      5.78508192440516E-01   5.78508192440516E-01   0.00000000000000E+00   1.67229554709881E-09   3.04743181207055E-08
      5.73711350793552E-10   3.27203250185979E-08   3.30913014884690E-17   3.00000000000000E+02  -4.78311682543718E-11
      3.00000000000000E+02  -4.19533464358937E-16   2.99999993792943E+02   3.00000001607607E+02   3.00000121030111E+02
      1.19164146647065E-09
      0.00000000000000E+00   0.00000000000000E+00   0.00000000000000E+00  -2.41087378068417E-08  -8.49026385478838E-09
      0.00000000000000E+00  -3.25990016616301E-08  -4.56682560084597E-17   3.00000000000000E+02  -7.96867278027118E-11
      0.00000000000000E+00   0.00000000000000E+00   0.00000000000000E+00  -9.27721300042543E-11  -2.27187948685368E-11
     -1.48221759936143E-12  -1.16973142472152E-10   1.32085540494063E-17   3.00000000000000E+02  -7.21057297457401E-12
      0.00000000000000E+00   0.00000000000000E+00   0.00000000000000E+00  -1.00876512264963E-10   1.10025268647935E-12
     -5.50209997497760E-10  -6.49986257076244E-10  -1.38465965964111E-18   3.00000000000000E+02  -9.26861233726880E-11
      6.01247289657616E-01   6.01247289657616E-01   0.00000000000000E+00   1.69529177789774E-09   3.09732650768698E-08
      6.97404206410869E-10   3.33659610611784E-08   3.38443616186945E-17   3.00000000000000E+02  -5.46807213221831E-11
      3.00000000000000E+02  -4.56139191522211E-16   2.99999989216622E+02   3.00000001721733E+02   3.00000134326117E+02
      1.22853495461807E-09
      0.00000000000000E+00   0.00000000000000E+00   0.00000000000000E+00  -2.46943692718427E-08  -8.76449381465371E-09
      0.00000000000000E+00  -3.34588630864964E-08  -4.69026701771674E-17   3.00000000000000E+02  -8.79685876536340E-11
      0.00000000000000E+00   0.00000000000000E+00   0.00000000000000E+00  -1.12548983540530E-10  -2.68120999290538E-11
     -1.99469542990638E-12  -1.41355778899490E-10   1.32035144866432E-17   3.00000000000000E+02  -8.07612547285605E-12
      0.00000000000000E+00   0.00000000000000E+00   0.00000000000000E+00  -1.25274398568006E-10   1.35422636737864E-12
     -6.74839691709255E-10  -7.98759863909883E-10  -1.37896185670405E-18   3.00000000000000E+02  -1.12186469429194E-10
      6.38535874962181E-01   6.38535874962181E-01   0.00000000000000E+00   1.72783923624172E-09   3.17253967601084E-08