DF-ISE text

Info {
  version   = 1.0
  type      = xyplot
  datasets  = [
    "time"
    "gate OuterVoltage" "gate InnerVoltage" "gate QuasiFermiPotential" "gate DisplacementCurrent" "gate eCurrent"
    "gate hCurrent" "gate TotalCurrent" "gate Charge" "gate Temperature" "gate lHeatFlux"
    "source OuterVoltage" "source InnerVoltage" "source QuasiFermiPotential" "source DisplacementCurrent" "source eCurrent"
    "source hCurrent" "source TotalCurrent" "source Charge" "source Temperature" "source lHeatFlux"
    "body OuterVoltage" "body InnerVoltage" "body QuasiFermiPotential" "body DisplacementCurrent" "body eCurrent"
    "body hCurrent" "body TotalCurrent" "body Charge" "body Temperature" "body lHeatFlux"
    "drain OuterVoltage" "drain InnerVoltage" "drain QuasiFermiPotential" "drain DisplacementCurrent" "drain eCurrent"
    "drain hCurrent" "drain TotalCurrent" "drain Charge" "drain Temperature" "drain lHeatFlux"
    "bodytherm Temperature" "bodytherm lHeatFlux" "Tmin" "Tave" "Tmax" ]
  functions = [
    Time
    OuterVoltage InnerVoltage QuasiFermiPotential DisplacementCurrent eCurrent
    hCurrent TotalCurrent Charge Temperature lHeatFlux
    OuterVoltage InnerVoltage QuasiFermiPotential DisplacementCurrent eCurrent
    hCurrent TotalCurrent Charge Temperature lHeatFlux
    OuterVoltage InnerVoltage QuasiFermiPotential DisplacementCurrent eCurrent
    hCurrent TotalCurrent Charge Temperature lHeatFlux
    OuterVoltage InnerVoltage QuasiFermiPotential DisplacementCurrent eCurrent
    hCurrent TotalCurrent Charge Temperature lHeatFlux
    Temperature lHeatFlux MinTemperature AveTemperature MaxTemperature ]
}

Data {
      0.00000000000000E+00
      0.00000000000000E+00   0.00000000000000E+00   0.00000000000000E+00   0.00000000000000E+00   0.00000000000000E+00
      0.00000000000000E+00   0.00000000000000E+00  -2.47780486439482E-17   3.00000000000000E+02   0.00000000000000E+00
      0.00000000000000E+00   0.00000000000000E+00   0.00000000000000E+00   0.00000000000000E+00   1.44231337024140E-22
     -1.44017835569623E-22   2.13501454517052E-25   1.32462570737700E-17   3.00000000000000E+02   0.00000000000000E+00
      0.00000000000000E+00   0.00000000000000E+00   0.00000000000000E+00   0.00000000000000E+00   2.45733566431167E-21
     -2.45766479871007E-21  -3.29134398404176E-25  -1.26681392880835E-18   3.00000000000000E+02   0.00000000000000E+00
      0.00000000000000E+00   0.00000000000000E+00   0.00000000000000E+00   0.00000000000000E+00   1.41760261446699E-22
     -1.41644628502813E-22   1.15632943885175E-25   1.27986054989865E-17   3.00000000000000E+02   0.00000000000000E+00
      3.00000000000000E+02   0.00000000000000E+00   3.00000000000000E+02   3.00000000000016E+02   3.00000000000000E+02
      0.00000000000000E+00
      0.00000000000000E+00   0.00000000000000E+00   0.00000000000000E+00   0.00000000000000E+00   0.00000000000000E+00
      0.00000000000000E+00   0.00000000000000E+00  -2.47781084447079E-17   3.00000000000000E+02   0.00000000000000E+00
      0.00000000000000E+00   0.00000000000000E+00   0.00000000000000E+00   0.00000000000000E+00   5.65811015905982E-17
     -7.34572250187147E-19   5.58465293404111E-17   1.32462230477158E-17   3.00000000000000E+02   0.00000000000000E+00
      0.00000000000000E+00   0.00000000000000E+00   0.00000000000000E+00   0.00000000000000E+00  -9.02394303711762E-17
      5.06205924740853E-19  -8.97332244464354E-17  -1.26671057837367E-18   3.00000000000000E+02   0.00000000000000E+00
     -2.57896715668196E-10  -2.57896715668196E-10   0.00000000000000E+00   0.00000000000000E+00   5.90503379997521E-17
     -2.51636428937274E-17   3.38866951060247E-17   1.27985959753658E-17   3.00000000000000E+02   0.00000000000000E+00
      3.00000000000000E+02   0.00000000000000E+00   3.00000000000000E+02   3.00000000000016E+02   3.00000000000000E+02
      0.00000000000000E+00
      0.00000000000000E+00   0.00000000000000E+00   0.00000000000000E+00   0.00000000000000E+00   0.00000000000000E+00
      0.00000000000000E+00   0.00000000000000E+00  -2.47781084447737E-17   3.00000000000000E+02   0.00000000000000E+00
      0.00000000000000E+00   0.00000000000000E+00   0.00000000000000E+00   0.00000000000000E+00   5.79103851204569E-17
     -1.85316749237886E-18   5.60572176280781E-17   1.32462230476964E-17   3.00000000000000E+02   0.00000000000000E+00
      0.00000000000000E+00   0.00000000000000E+00   0.00000000000000E+00   0.00000000000000E+00  -9.02393214820780E-17
      8.59940850609866E-20  -9.01533273970170E-17  -1.26671057827759E-18   3.00000000000000E+02   0.00000000000000E+00
     -2.57897634115568E-10  -2.57897634115568E-10   0.00000000000000E+00   0.00000000000000E+00   5.60204922884657E-17
     -2.19243825195267E-17   3.40961097689390E-17   1.27985959753549E-17   3.00000000000000E+02   0.00000000000000E+00
      3.00000000000000E+02   0.00000000000000E+00   3.00000000000000E+02   3.00000000000016E+02   3.00000000000000E+02
      0.00000000000000E+00
      0.00000000000000E+00   0.00000000000000E+00   0.00000000000000E+00   0.00000000000000E+00   0.00000000000000E+00
      0.00000000000000E+00   0.00000000000000E+00  -2.47781084557790E-17   3.00000000000000E+02  -2.54556660460129E-18
      0.00000000000000E+00   0.00000000000000E+00   0.00000000000000E+00   0.00000000000000E+00   6.57126480592024E-21
     -1.05335755409833E-20  -3.96231073506308E-21   1.32462230477284E-17   3.00000000000000E+02  -4.31297504007390E-19
      0.00000000000000E+00   0.00000000000000E+00   0.00000000000000E+00   0.00000000000000E+00   2.15346464927491E-20
     -1.75722612736850E-20   3.96238521906408E-21  -1.26671057839691E-18   3.00000000000000E+02  -1.19948999408861E-18
      2.81015158570118E-11   2.81015158570118E-11   0.00000000000000E+00   0.00000000000000E+00   7.73025978518780E-20
     -7.73026723358789E-20  -7.44840009175805E-26   1.27985959864476E-17   3.00000000000000E+02  -1.19227388507332E-18
      3.00000000000000E+02  -2.12207113990688E-19   3.00000000000000E+02   3.00000000000016E+02   3.00000000000001E+02
      6.25000000000000E-11
      0.00000000000000E+00   0.00000000000000E+00   0.00000000000000E+00  -2.13461152534177E-09  -7.23270105307988E-10
      0.00000000000000E+00  -2.85788163064976E-09  -2.49567260576947E-17   3.00000000000000E+02  -1.18793740669914E-11
      0.00000000000000E+00   0.00000000000000E+00   0.00000000000000E+00  -4.47038933475377E-12  -1.41564601539110E-12
     -1.41883867485368E-14  -5.90022373689340E-12   1.32458794879183E-17   3.00000000000000E+02  -2.84751499379352E-13
      0.00000000000000E+00   0.00000000000000E+00   0.00000000000000E+00  -4.44638302121712E-12   1.26207259386825E-14
     -6.78438331724983E-12  -1.12181456125283E-11  -1.26739426047933E-18   3.00000000000000E+02  -6.89911990188350E-13
      4.67732356092373E-03   4.67732356092373E-03   0.00000000000000E+00   1.28464470673083E-10   2.74677114953726E-09
     -2.35620211144431E-13   2.87499999999920E-09   1.29782408302557E-17   3.00000000000000E+02  -5.40278464505302E-12
      3.00000000000000E+02  -2.12207113990688E-19   3.00000000000000E+02   3.00000000024722E+02   3.00000014040905E+02
      1.62500000000000E-10
      0.00000000000000E+00   0.00000000000000E+00   0.00000000000000E+00  -5.54871234683928E-09  -1.87543501246339E-09
      0.00000000000000E+00  -7.42414735930267E-09  -2.56991407936250E-17   3.00000000000000E+02  -4.04609329461669E-11
      0.00000000000000E+00   0.00000000000000E+00   0.00000000000000E+00  -1.04664848071504E-11  -3.87751215897381E-12
     -5.33805056303190E-14  -1.43973774717545E-11   1.32445891757913E-17   3.00000000000000E+02  -1.28930702404875E-12
      0.00000000000000E+00   0.00000000000000E+00   0.00000000000000E+00  -1.01547409746465E-11   5.04714685476013E-14
     -2.63509937194862E-11  -3.64552632255851E-11  -1.27095012430446E-18   3.00000000000000E+02  -3.49127216706834E-12
      2.42050746859355E-02   2.42050746859355E-02   0.00000000000000E+00   3.36032809436958E-10   7.13949013731739E-09
     -5.22946754357685E-13   7.47499999999999E-09   1.37255017421382E-17   3.00000000000000E+02  -1.57945328685095E-11
      3.00000000000000E+02  -4.24414227981376E-19   3.00000000000000E+02   3.00000000113742E+02   3.00000041586236E+02
      2.42500000000000E-10
      0.00000000000000E+00   0.00000000000000E+00   0.00000000000000E+00  -8.27953360638135E-09  -2.79462127669552E-09
      0.00000000000000E+00  -1.10741548830769E-08  -2.65850731842711E-17   3.00000000000000E+02  -6.39305814795789E-11
      0.00000000000000E+00   0.00000000000000E+00   0.00000000000000E+00  -1.47417094339010E-11  -5.45355470192634E-12
     -9.38693400125092E-14  -2.02891334758399E-11   1.32431326919950E-17   3.00000000000000E+02  -2.29221801478134E-12
      0.00000000000000E+00   0.00000000000000E+00   0.00000000000000E+00  -1.40646013358643E-11   9.00803426307998E-14
     -4.65814624538833E-11  -6.05559834471168E-11  -1.27567526111575E-18   3.00000000000000E+02  -6.72711489379351E-12
      4.76753481464061E-02   4.76753481464061E-02   0.00000000000000E+00   5.05911305897033E-10   1.06497323659587E-08
     -6.43671855901679E-13   1.11549999999998E-08   1.46176157533918E-17   3.00000000000000E+02  -2.36942023627289E-11
      3.00000000000000E+02  -9.54932012958093E-19   3.00000000000000E+02   3.00000000209410E+02   3.00000062309468E+02
      3.06500000000000E-10
      0.00000000000000E+00   0.00000000000000E+00   0.00000000000000E+00  -1.04639009403772E-08  -3.52853452804970E-09
      0.00000000000000E+00  -1.39924354684269E-08  -2.74805890542505E-17   3.00000000000000E+02  -8.14806330787573E-11
      0.00000000000000E+00   0.00000000000000E+00   0.00000000000000E+00  -1.79271001728803E-11  -6.44031357529526E-12
     -1.31659497101819E-13  -2.44990732452774E-11   1.32417139048390E-17   3.00000000000000E+02  -3.14736707322611E-12
      0.00000000000000E+00   0.00000000000000E+00   0.00000000000000E+00  -1.68838392451247E-11   1.26976369354970E-13
     -6.53085954519905E-11  -8.20654583277602E-11  -1.28079476411801E-18   3.00000000000000E+02  -9.90024438000165E-12
      7.15838410591057E-02   7.15838410591057E-02   0.00000000000000E+00   6.45370231786767E-10   1.34542322240591E-08
     -6.02455846000901E-13   1.40989999999999E-08   1.55196699135295E-17   3.00000000000000E+02  -2.93370422508352E-11
      3.00000000000000E+02  -1.83028635816967E-18   3.00000000000000E+02   3.00000000298112E+02   3.00000076902815E+02
      3.57700000000000E-10
      0.00000000000000E+00   0.00000000000000E+00   0.00000000000000E+00  -1.22110351623017E-08  -4.11489067890725E-09
      0.00000000000000E+00  -1.63259258412090E-08  -2.83164764573203E-17   3.00000000000000E+02  -9.43140162418182E-11
      0.00000000000000E+00   0.00000000000000E+00   0.00000000000000E+00  -2.03797559667991E-11  -7.11025079900087E-12
     -1.65237485140887E-13  -2.76552442509409E-11   1.32404223801879E-17   3.00000000000000E+02  -3.83365969272320E-12
      0.00000000000000E+00   0.00000000000000E+00   0.00000000000000E+00  -1.90023098051883E-11   1.59549886365908E-13
     -8.17761546213004E-11  -1.00618914540123E-10  -1.28580977709189E-18   3.00000000000000E+02  -1.27882124316002E-11
      9.40707903708246E-02   9.40707903708246E-02   0.00000000000000E+00   7.59905292270576E-10   1.56946970326871E-08
     -4.02324957715945E-13   1.64542000000000E-08   1.63618638542243E-17   3.00000000000000E+02  -3.33445031491138E-11
      3.00000000000000E+02  -2.97974155895255E-18   3.00000000000000E+02   3.00000000375367E+02   3.00000087602702E+02
      3.98660000000000E-10
      0.00000000000000E+00   0.00000000000000E+00   0.00000000000000E+00  -1.36082084116615E-08  -4.58372098037963E-09
      0.00000000000000E+00  -1.81919293920411E-08  -2.90616178852183E-17   3.00000000000000E+02  -1.03774410533528E-10
      0.00000000000000E+00   0.00000000000000E+00   0.00000000000000E+00  -2.23147248132668E-11  -7.60339425905927E-12
     -1.94247227308296E-13  -3.01123662996343E-11   1.32392902848051E-17   3.00000000000000E+02  -4.37312013625528E-12
      0.00000000000000E+00   0.00000000000000E+00   0.00000000000000E+00  -2.06469007671350E-11   1.87482398065585E-13
     -9.58588232905091E-11  -1.16318241659578E-10  -1.29043897787967E-18   3.00000000000000E+02  -1.53121464463752E-11
      1.14260198068489E-01   1.14260198068489E-01   0.00000000000000E+00   8.53893414622313E-10   1.74845231338339E-08
     -5.65484558072556E-14   1.83383600000004E-08   1.71127665782929E-17   3.00000000000000E+02  -3.62564232060871E-11
      3.00000000000000E+02  -4.31487798447726E-18   3.00000000000000E+02   3.00000000440671E+02   3.00000095755263E+02
      4.64196000000000E-10
      0.00000000000000E+00   0.00000000000000E+00   0.00000000000000E+00  -1.58420072965634E-08  -5.33388200579493E-09
      0.00000000000000E+00  -2.11758893023583E-08  -3.04494009665377E-17   3.00000000000000E+02  -1.21909143052784E-10
      0.00000000000000E+00   0.00000000000000E+00   0.00000000000000E+00  -2.52766512828306E-11  -8.32919292665100E-12
     -2.45479860996983E-13  -3.38513240704786E-11   1.32372363423268E-17   3.00000000000000E+02  -5.32250739732827E-12
      0.00000000000000E+00   0.00000000000000E+00   0.00000000000000E+00  -2.30995685649416E-11   2.36367306704782E-13
     -1.20412172312983E-10  -1.43275373571220E-10  -1.29950212842867E-18   3.00000000000000E+02  -1.98488250625688E-11
      1.52248216333705E-01   1.52248216333705E-01   0.00000000000000E+00   1.00582893973539E-09   2.03460161502100E-08
      1.17091005455135E-12   2.13530160000000E-08   1.85116667526396E-17   3.00000000000000E+02  -4.25349059412734E-11
      3.00000000000000E+02  -8.13460603630947E-18   3.00000000000000E+02   3.00000000562552E+02   3.00000113212236E+02
      5.16624800000000E-10
      0.00000000000000E+00   0.00000000000000E+00   0.00000000000000E+00  -1.76243151122744E-08  -5.93664945340573E-09
      0.00000000000000E+00  -2.35609645656801E-08  -3.16846740655589E-17   3.00000000000000E+02  -1.34540565288897E-10
      0.00000000000000E+00   0.00000000000000E+00   0.00000000000000E+00  -2.78773533783169E-11  -8.94988731351692E-12
     -2.90612361369855E-13  -3.71178530532037E-11   1.32354229940399E-17   3.00000000000000E+02  -6.07126876213282E-12
      0.00000000000000E+00   0.00000000000000E+00   0.00000000000000E+00  -2.52786661753381E-11   2.78753129022973E-13
     -1.41658468220282E-10  -1.66658381266597E-10  -1.30785473225251E-18   3.00000000000000E+02  -2.38183460380570E-11
      1.86520989150693E-01   1.86520989150693E-01   0.00000000000000E+00   1.13610212925011E-09   2.26253509108249E-08
      3.28775992485777E-12   2.37647407999999E-08   1.97571058037714E-17   3.00000000000000E+02  -4.64197911489249E-11
      3.00000000000000E+02  -1.26440072086112E-17   3.00000000000000E+02   3.00000000665424E+02   3.00000124781595E+02
      5.58567840000000E-10
      0.00000000000000E+00   0.00000000000000E+00   0.00000000000000E+00  -1.90444434299433E-08  -6.42289550615851E-09
      0.00000000000000E+00  -2.54673389361018E-08  -3.27528516812494E-17   3.00000000000000E+02  -1.43791640918939E-10
      0.00000000000000E+00   0.00000000000000E+00   0.00000000000000E+00  -3.01677237808279E-11  -9.49069973551504E-12
     -3.29939240256002E-13  -3.99883627565990E-11   1.32338526313015E-17   3.00000000000000E+02  -6.65259245053402E-12
      0.00000000000000E+00   0.00000000000000E+00   0.00000000000000E+00  -2.72363605136955E-11   3.15142637837481E-13
     -1.59872123265631E-10  -1.86793341141489E-10  -1.31524804325878E-18   3.00000000000000E+02  -2.72339365849760E-11
      2.16544205731697E-01   2.16544205731697E-01   0.00000000000000E+00   1.24547698200660E-09   2.44423138007239E-08
      6.32985726930178E-12   2.56941206399998E-08   2.08342470932066E-17   3.00000000000000E+02  -4.93246219372461E-11
      3.00000000000000E+02  -1.74717190518989E-17   3.00000000000000E+02   3.00000000751216E+02   3.00000133192051E+02
      5.92122272000000E-10
      0.00000000000000E+00   0.00000000000000E+00   0.00000000000000E+00  -2.01750095819514E-08  -6.81597502465552E-09
      0.00000000000000E+00  -2.69909846066070E-08  -3.36585188388447E-17   3.00000000000000E+02  -1.50229825373298E-10
      0.00000000000000E+00   0.00000000000000E+00   0.00000000000000E+00  -3.22133034702571E-11  -9.96987615280069E-12
     -3.63988229045363E-13  -4.25471678521031E-11   1.32325110295842E-17   3.00000000000000E+02  -7.09644810458193E-12
      0.00000000000000E+00   0.00000000000000E+00   0.00000000000000E+00  -2.90316093100845E-11   3.46206437728769E-13
     -1.75407334668635E-10  -2.04092737540991E-10  -1.32161110371510E-18   3.00000000000000E+02  -3.01410406905234E-11
      2.42302592271272E-01   2.42302592271272E-01   0.00000000000000E+00   1.33679304803322E-09   2.58906283102974E-08
      1.02031536693883E-11   2.72376245120001E-08   2.17476189129756E-17   3.00000000000000E+02  -5.12712038839893E-11
      3.00000000000000E+02  -2.22817469690204E-17   3.00000000000000E+02   3.00000000821381E+02   3.00000138460127E+02
      6.18965817600000E-10
      0.00000000000000E+00   0.00000000000000E+00   0.00000000000000E+00  -2.10750520406795E-08  -7.13366556780647E-09
      0.00000000000000E+00  -2.82087176084860E-08  -3.44157408362857E-17   3.00000000000000E+02  -1.54163155056032E-10
      0.00000000000000E+00   0.00000000000000E+00   0.00000000000000E+00  -3.40342970849292E-11  -1.03933333266701E-11
     -3.93270698913377E-13  -4.48209011105127E-11   1.32313771384967E-17   3.00000000000000E+02  -7.42540167938330E-12
      0.00000000000000E+00   0.00000000000000E+00   0.00000000000000E+00  -3.06729674494078E-11   3.72575307232531E-13
     -1.88588707861208E-10  -2.18889100003383E-10  -1.32697784495956E-18   3.00000000000000E+02  -3.25946368469212E-11
      2.64060227043000E-01   2.64060227043000E-01   0.00000000000000E+00   1.41226559138002E-09   2.70454694595737E-08
      1.46925586460684E-11   2.84724276095998E-08   2.25113415427487E-17   3.00000000000000E+02  -5.22896644110876E-11
      3.00000000000000E+02  -2.67911481413217E-17   3.00000000000000E+02   3.00000000877556E+02   3.00000140754372E+02
      6.61915490560000E-10
      0.00000000000000E+00   0.00000000000000E+00   0.00000000000000E+00  -2.25126797706847E-08  -7.64188601599007E-09
      0.00000000000000E+00  -3.01545657866747E-08  -3.57108695750742E-17   3.00000000000000E+02  -1.62513531229993E-10
      0.00000000000000E+00   0.00000000000000E+00   0.00000000000000E+00  -3.71239797366503E-11  -1.11045212212776E-11
     -4.45676853059317E-13  -4.86741778109871E-11   1.32293987926972E-17   3.00000000000000E+02  -7.96811680738527E-12
      0.00000000000000E+00   0.00000000000000E+00   0.00000000000000E+00  -3.35417906197144E-11   4.18994854730918E-13
     -2.11749805509197E-10  -2.44872601274180E-10  -1.33618967736124E-18   3.00000000000000E+02  -3.68947143121972E-11
      3.01735086739830E-01   3.01735086739830E-01   0.00000000000000E+00   1.52921112070916E-09   2.88928952116949E-08
      2.60062333559363E-11   3.04481125657600E-08   2.38176604597381E-17   3.00000000000000E+02  -5.57037451364297E-11
      3.00000000000000E+02  -3.61813129354075E-17   3.00000000000000E+02   3.00000000975597E+02   3.00000148132356E+02
      6.96275228928000E-10
      0.00000000000000E+00   0.00000000000000E+00   0.00000000000000E+00  -2.36503203061888E-08  -8.05698945041815E-09
      0.00000000000000E+00  -3.17073097566069E-08  -3.68003244426643E-17   3.00000000000000E+02  -1.61570337505954E-10
      0.00000000000000E+00   0.00000000000000E+00   0.00000000000000E+00  -4.03187371741148E-11  -1.18294758140659E-11
     -4.93877552516519E-13  -5.26420905406972E-11   1.32276810412562E-17   3.00000000000000E+02  -8.27296566392634E-12
      0.00000000000000E+00   0.00000000000000E+00   0.00000000000000E+00  -3.66660280697706E-11   4.60548383508985E-13
     -2.32503203854134E-10  -2.68708683540396E-10  -1.34387813763574E-18   3.00000000000000E+02  -4.06618740596193E-11
      3.33839481252327E-01   3.33839481252327E-01   0.00000000000000E+00   1.62950178187664E-09   3.03585250253180E-08
      4.06337234933285E-11   3.20286605306879E-08   2.49165215390439E-17   3.00000000000000E+02  -5.40789910295190E-11
      3.00000000000000E+02  -4.52973768739214E-17   3.00000000000000E+02   3.00000001046494E+02   3.00000142367901E+02
      7.23763019622400E-10
      0.00000000000000E+00   0.00000000000000E+00   0.00000000000000E+00  -2.45558447477988E-08  -8.39070162392588E-09
      0.00000000000000E+00  -3.29465463717246E-08  -3.77059522134337E-17   3.00000000000000E+02  -1.55567460177094E-10
      0.00000000000000E+00   0.00000000000000E+00   0.00000000000000E+00  -4.33381182992833E-11  -1.25057063034279E-11
     -5.37790469503485E-13  -5.63816150722146E-11   1.32262051297188E-17   3.00000000000000E+02  -8.38042803024767E-12
      0.00000000000000E+00   0.00000000000000E+00   0.00000000000000E+00  -3.97398529870187E-11   4.97436017215920E-13
     -2.50928498864646E-10  -2.90170915834449E-10  -1.35015298142361E-18   3.00000000000000E+02  -4.39415009846925E-11
      3.60766390985665E-01   3.60766390985665E-01   0.00000000000000E+00   1.70857479451029E-09   3.15268248905705E-08
      5.76992175505028E-11   3.32930989026313E-08   2.58299000651384E-17   3.00000000000000E+02  -5.10205918580033E-11
      3.00000000000000E+02  -5.37591355442969E-17   3.00000000000000E+02   3.00000001096823E+02   3.00000132991431E+02
      7.67743484733440E-10
      0.00000000000000E+00   0.00000000000000E+00   0.00000000000000E+00  -2.60019679826193E-08  -8.91861505055482E-09
      0.00000000000000E+00  -3.49205830331742E-08  -3.92417756971813E-17   3.00000000000000E+02  -1.45021705478598E-10
      0.00000000000000E+00   0.00000000000000E+00   0.00000000000000E+00  -4.91991301173344E-11  -1.37936698904530E-11
     -6.26198418776432E-13  -6.36189984265638E-11   1.32235292221211E-17   3.00000000000000E+02  -8.37101136950777E-12
      0.00000000000000E+00   0.00000000000000E+00   0.00000000000000E+00  -4.60083216504273E-11   5.68845971012450E-13
     -2.86558790457684E-10  -3.31998266137099E-10  -1.36013581013565E-18   3.00000000000000E+02  -5.01209871268418E-11
      4.06795044137751E-01   4.06795044137751E-01   0.00000000000000E+00   1.82460997488012E-09   3.33908679742479E-08
      1.00722348609981E-10   3.53162002977380E-08   2.73783822851958E-17   3.00000000000000E+02  -4.86135246801782E-11
      3.00000000000000E+02  -7.08594921467053E-17   3.00000000000000E+02   3.00000001179000E+02   3.00000122092121E+02
      8.02927856822272E-10
      0.00000000000000E+00   0.00000000000000E+00   0.00000000000000E+00  -2.71424797592544E-08  -9.34588049893385E-09
      0.00000000000000E+00  -3.64883602581883E-08  -4.05255957414167E-17   3.00000000000000E+02  -1.29752449465183E-10
      0.00000000000000E+00   0.00000000000000E+00   0.00000000000000E+00  -5.58249355200344E-11  -1.52282366122192E-11
     -7.18639610164997E-13  -7.17718117424186E-11   1.32211056058548E-17   3.00000000000000E+02  -8.18942256170626E-12
      0.00000000000000E+00   0.00000000000000E+00   0.00000000000000E+00  -5.34073653085864E-11   6.39342842923125E-13
     -3.21781321427919E-10  -3.74549343893582E-10  -1.36769318508595E-18   3.00000000000000E+02  -5.59787696017113E-11
      4.45502843375895E-01   4.45502843375895E-01   0.00000000000000E+00   1.91652261731456E-09   3.48624717578122E-08
      1.55687038697581E-10   3.69346814138244E-08   2.86721833206479E-17   3.00000000000000E+02  -4.39600137927295E-11
      3.00000000000000E+02  -8.71552301085640E-17   3.00000000000000E+02   3.00000001239919E+02   3.00000104237272E+02
      8.31075354493338E-10
      0.00000000000000E+00   0.00000000000000E+00   0.00000000000000E+00  -2.80448342692564E-08  -9.68735484593053E-09
      0.00000000000000E+00  -3.77321891151869E-08  -4.15876624466607E-17   3.00000000000000E+02  -1.16903811512950E-10
      0.00000000000000E+00   0.00000000000000E+00   0.00000000000000E+00  -6.28241470210180E-11  -1.67269622087440E-11
     -8.14249180080408E-13  -8.03653584098423E-11   1.32189285352471E-17   3.00000000000000E+02  -7.97823455261948E-12
      0.00000000000000E+00   0.00000000000000E+00   0.00000000000000E+00  -6.14584010343555E-11   7.08121532827684E-13
     -3.56161553594840E-10  -4.16911833096367E-10  -1.37316187080223E-18   3.00000000000000E+02  -6.15001601353741E-11
      4.77615928792236E-01   4.77615928792236E-01   0.00000000000000E+00   1.98527335155173E-09   3.60253896863734E-08
      2.18803268768031E-10   3.82294663066931E-08   2.97418957822158E-17   3.00000000000000E+02  -4.18895435729988E-11
      3.00000000000000E+02  -1.02053937903316E-16   3.00000000000000E+02   3.00000001293064E+02   3.00000090513205E+02
      8.76111350767043E-10
      0.00000000000000E+00   0.00000000000000E+00   0.00000000000000E+00  -2.94581265487643E-08  -1.02311084243457E-08
      0.00000000000000E+00  -3.96892349731100E-08  -4.33751066850159E-17   3.00000000000000E+02  -1.04862138203631E-10
      0.00000000000000E+00   0.00000000000000E+00   0.00000000000000E+00  -7.82277646793537E-11  -1.99853787647683E-11
     -1.05023005443362E-12  -9.92633734985556E-11   1.32146085912015E-17   3.00000000000000E+02  -7.82755931085489E-12
      0.00000000000000E+00   0.00000000000000E+00   0.00000000000000E+00  -7.96517512689906E-11   8.64011993262041E-13
     -4.33836049399520E-10  -5.12623788675249E-10  -1.37924781440240E-18   3.00000000000000E+02  -7.36666262034618E-11
      5.31731374325986E-01   5.31731374325986E-01   0.00000000000000E+00   2.08467058431560E-09   3.78432903704984E-08
      3.73161180469793E-10   4.03011221352838E-08   3.15397459082167E-17   3.00000000000000E+02  -4.57877375372083E-11
      3.00000000000000E+02  -1.31515358895665E-16   3.00000000000000E+02   3.00000001422189E+02   3.00000106637614E+02
      9.12140147786007E-10
      0.00000000000000E+00   0.00000000000000E+00   0.00000000000000E+00  -3.05435164892908E-08  -1.06724376281526E-08
      0.00000000000000E+00  -4.12159541174433E-08  -4.48600679298564E-17   3.00000000000000E+02  -9.95012370973151E-11
      0.00000000000000E+00   0.00000000000000E+00   0.00000000000000E+00  -9.62649167124286E-11  -2.37752098821010E-11
     -1.34848981387797E-12  -1.21388616408408E-10   1.32103721548660E-17   3.00000000000000E+02  -7.94570078511641E-12
      0.00000000000000E+00   0.00000000000000E+00   0.00000000000000E+00  -1.01375079327354E-10   1.03893784919848E-12
     -5.20767922826329E-10  -6.21104064304484E-10  -1.38120654657674E-18   3.00000000000000E+02  -8.68926403149524E-11
      5.76703977165903E-01   5.76703977165903E-01   0.00000000000000E+00   2.15755234420226E-09   3.92383440818717E-08
      5.62550372082371E-10   4.19584467981564E-08   3.30309023215668E-17   3.00000000000000E+02  -5.32519877383252E-11
      3.00000000000000E+02  -1.59155335492922E-16   3.00000000000000E+02   3.00000001570859E+02   3.00000126186798E+02
      9.69786223016349E-10
      0.00000000000000E+00   0.00000000000000E+00   0.00000000000000E+00  -3.21507302078981E-08  -1.13767999016145E-08
      0.00000000000000E+00  -4.35275301095126E-08  -4.73692592051402E-17   3.00000000000000E+02  -1.11521348141499E-10
      0.00000000000000E+00   0.00000000000000E+00   0.00000000000000E+00  -1.37627988266213E-10  -3.23779214367812E-11
     -2.35175336725677E-12  -1.72357663070251E-10   1.32007376853599E-17   3.00000000000000E+02  -9.38648518515584E-12
      0.00000000000000E+00   0.00000000000000E+00   0.00000000000000E+00  -1.52067044373348E-10   1.52560215399632E-12
     -7.59737043949379E-10  -9.10278486168730E-10  -1.37257937632532E-18   3.00000000000000E+02  -1.23895621898247E-10
      6.52552322573411E-01   6.52552322573411E-01   0.00000000000000E+00   2.25428399779476E-09   4.13026253317180E-08
      1.05325692923885E-09   4.46101662587517E-08   3.55411008961056E-17   3.00000000000000E+02  -8.19482978174233E-11
      3.00000000000000E+02  -2.16132945599342E-16   2.99999992450855E+02   3.00000002030783E+02   3.00000180906626E+02
      1.06201994338490E-09
      0.00000000000000E+00   0.00000000000000E+00   0.00000000000000E+00  -3.41653073400611E-08  -1.24259236500573E-08
      0.00000000000000E+00  -4.65912309901183E-08  -5.16665417759091E-17   3.00000000000000E+02  -2.14144721806101E-10
      0.00000000000000E+00   0.00000000000000E+00   0.00000000000000E+00  -2.33211247793570E-10  -5.18535296512188E-11
     -9.07387903188248E-12  -2.94138656476671E-10   1.31748777933746E-17   3.00000000000000E+02  -1.83741487489817E-11
      0.00000000000000E+00   0.00000000000000E+00   0.00000000000000E+00  -2.72027076990855E-10   3.49788041524641E-12
     -1.69901855253470E-09  -1.96754774911030E-09  -1.31259604259893E-18   3.00000000000000E+02  -2.82097146232350E-10
      7.81757011097517E-01   7.81757011097517E-01   0.00000000000000E+00   2.35189082971239E-09   4.38980198068874E-08
      2.60300675910570E-09   4.88529173957055E-08   3.98042600251333E-17   3.00000000000000E+02  -1.91362406280012E-10
      3.00000000000000E+02  -3.55234708819943E-16   3.00000000000000E+02   3.00000004055930E+02   3.00000412141794E+02
      1.20959389597457E-09
      0.00000000000000E+00   0.00000000000000E+00   0.00000000000000E+00  -3.49397302745431E-08  -1.31829530973401E-08
      0.00000000000000E+00  -4.81226833718832E-08  -5.87681963703195E-17   3.00000000000000E+02  -9.05794416349435E-10
      0.00000000000000E+00   0.00000000000000E+00   0.00000000000000E+00  -3.56567472659316E-10  -7.22162549886497E-11
     -1.46462551210445E-10  -5.75246278858410E-10   1.31139375936558E-17   3.00000000000000E+02  -7.67588977566860E-11
      0.00000000000000E+00   0.00000000000000E+00   0.00000000000000E+00  -4.34189253338549E-10   1.43030912285303E-11
     -6.52350340197866E-09  -6.94338956408868E-09  -1.12093835818956E-18   3.00000000000000E+02  -1.25671344875922E-09
      9.94154335757337E-01   9.94154335757337E-01   0.00000000000000E+00   2.35113150295359E-09   4.49843868663853E-08