DF-ISE text

Info {
  version   = 1.0
  type      = xyplot
  datasets  = [
    "time"
    "gate OuterVoltage" "gate InnerVoltage" "gate QuasiFermiPotential" "gate DisplacementCurrent" "gate eCurrent"
    "gate hCurrent" "gate TotalCurrent" "gate Charge" "gate Temperature" "gate lHeatFlux"
    "source OuterVoltage" "source InnerVoltage" "source QuasiFermiPotential" "source DisplacementCurrent" "source eCurrent"
    "source hCurrent" "source TotalCurrent" "source Charge" "source Temperature" "source lHeatFlux"
    "body OuterVoltage" "body InnerVoltage" "body QuasiFermiPotential" "body DisplacementCurrent" "body eCurrent"
    "body hCurrent" "body TotalCurrent" "body Charge" "body Temperature" "body lHeatFlux"
    "drain OuterVoltage" "drain InnerVoltage" "drain QuasiFermiPotential" "drain DisplacementCurrent" "drain eCurrent"
    "drain hCurrent" "drain TotalCurrent" "drain Charge" "drain Temperature" "drain lHeatFlux"
    "bodytherm Temperature" "bodytherm lHeatFlux" "Tmin" "Tave" "Tmax" ]
  functions = [
    Time
    OuterVoltage InnerVoltage QuasiFermiPotential DisplacementCurrent eCurrent
    hCurrent TotalCurrent Charge Temperature lHeatFlux
    OuterVoltage InnerVoltage QuasiFermiPotential DisplacementCurrent eCurrent
    hCurrent TotalCurrent Charge Temperature lHeatFlux
    OuterVoltage InnerVoltage QuasiFermiPotential DisplacementCurrent eCurrent
    hCurrent TotalCurrent Charge Temperature lHeatFlux
    OuterVoltage InnerVoltage QuasiFermiPotential DisplacementCurrent eCurrent
    hCurrent TotalCurrent Charge Temperature lHeatFlux
    Temperature lHeatFlux MinTemperature AveTemperature MaxTemperature ]
}

Data {
      0.00000000000000E+00
      0.00000000000000E+00   0.00000000000000E+00   0.00000000000000E+00   0.00000000000000E+00   0.00000000000000E+00
      0.00000000000000E+00   0.00000000000000E+00  -2.47780486439482E-17   3.00000000000000E+02   0.00000000000000E+00
      0.00000000000000E+00   0.00000000000000E+00   0.00000000000000E+00   0.00000000000000E+00   1.53263259159076E-22
     -1.53011575317084E-22   2.51683841992019E-25   1.32462570737700E-17   3.00000000000000E+02   0.00000000000000E+00
      0.00000000000000E+00   0.00000000000000E+00   0.00000000000000E+00   0.00000000000000E+00   2.45733566434448E-21
     -2.45754412186139E-21  -2.08457516904450E-25  -1.26681392880835E-18   3.00000000000000E+02   0.00000000000000E+00
      0.00000000000000E+00   0.00000000000000E+00   0.00000000000000E+00   0.00000000000000E+00   1.41759820259640E-22
     -1.41803046584730E-22  -4.32263250897001E-26   1.27986054989865E-17   3.00000000000000E+02   0.00000000000000E+00
      3.00000000000000E+02   0.00000000000000E+00   3.00000000000000E+02   3.00000000000016E+02   3.00000000000000E+02
      0.00000000000000E+00
      0.00000000000000E+00   0.00000000000000E+00   0.00000000000000E+00   0.00000000000000E+00   0.00000000000000E+00
      0.00000000000000E+00   0.00000000000000E+00  -2.47781084447079E-17   3.00000000000000E+02   0.00000000000000E+00
      0.00000000000000E+00   0.00000000000000E+00   0.00000000000000E+00   0.00000000000000E+00   5.65831216744155E-17
     -7.36922298786885E-19   5.58461993756286E-17   1.32462230477158E-17   3.00000000000000E+02   0.00000000000000E+00
      0.00000000000000E+00   0.00000000000000E+00   0.00000000000000E+00   0.00000000000000E+00  -9.02388954276605E-17
      5.06203180902204E-19  -8.97326922467583E-17  -1.26671057837367E-18   3.00000000000000E+02   0.00000000000000E+00
     -2.57896256444510E-10  -2.57896256444510E-10   0.00000000000000E+00   0.00000000000000E+00   5.90499748890383E-17
     -2.51634820179083E-17   3.38864928711299E-17   1.27985959753658E-17   3.00000000000000E+02   0.00000000000000E+00
      3.00000000000000E+02   0.00000000000000E+00   3.00000000000000E+02   3.00000000000016E+02   3.00000000000000E+02
      0.00000000000000E+00
      0.00000000000000E+00   0.00000000000000E+00   0.00000000000000E+00   0.00000000000000E+00   0.00000000000000E+00
      0.00000000000000E+00   0.00000000000000E+00  -2.47781084447743E-17   3.00000000000000E+02   0.00000000000000E+00
      0.00000000000000E+00   0.00000000000000E+00   0.00000000000000E+00   0.00000000000000E+00   5.79286274219575E-17
     -1.86890212313220E-18   5.60597252988253E-17   1.32462230476962E-17   3.00000000000000E+02   0.00000000000000E+00
      0.00000000000000E+00   0.00000000000000E+00   0.00000000000000E+00   0.00000000000000E+00  -9.02388179266364E-17
      8.19299337002931E-20  -9.01568879929361E-17  -1.26671057827666E-18   3.00000000000000E+02   0.00000000000000E+00
     -2.57897174891882E-10  -2.57897174891882E-10   0.00000000000000E+00   0.00000000000000E+00   5.60380195253507E-17
     -2.19408568312397E-17   3.40971626941111E-17   1.27985959753548E-17   3.00000000000000E+02   0.00000000000000E+00
      3.00000000000000E+02   0.00000000000000E+00   3.00000000000000E+02   3.00000000000016E+02   3.00000000000000E+02
      0.00000000000000E+00
      0.00000000000000E+00   0.00000000000000E+00   0.00000000000000E+00   0.00000000000000E+00   0.00000000000000E+00
      0.00000000000000E+00   0.00000000000000E+00  -2.47781084557806E-17   3.00000000000000E+02  -2.58180239739543E-18
      0.00000000000000E+00   0.00000000000000E+00   0.00000000000000E+00   0.00000000000000E+00   6.56981153022053E-21
     -1.05400671191436E-20  -3.97025558892307E-21   1.32462230477284E-17   3.00000000000000E+02  -4.31297504007390E-19
      0.00000000000000E+00   0.00000000000000E+00   0.00000000000000E+00   0.00000000000000E+00   2.15764635892345E-20
     -1.76032941648822E-20   3.97316942435232E-21  -1.26671057839693E-18   3.00000000000000E+02  -1.20090414698895E-18
      2.81433589586208E-11   2.81433589586208E-11   0.00000000000000E+00   0.00000000000000E+00   7.72755919401084E-20
     -7.72785057755377E-20  -2.91383542936315E-24   1.27985959864492E-17   3.00000000000000E+02  -1.19456346595958E-18
      3.00000000000000E+02  -2.12207113990688E-19   3.00000000000000E+02   3.00000000000016E+02   3.00000000000001E+02
      6.25000000000000E-11
      0.00000000000000E+00   0.00000000000000E+00   0.00000000000000E+00  -2.96990310264753E-09  -1.00629161274011E-09
      0.00000000000000E+00  -3.97619471538763E-09  -2.50266206254924E-17   3.00000000000000E+02  -1.65421112301605E-11
      0.00000000000000E+00   0.00000000000000E+00   0.00000000000000E+00  -6.22117413012445E-12  -1.95168257837483E-12
     -1.97579756283246E-14  -8.19261468412761E-12   1.32457449262660E-17   3.00000000000000E+02  -3.97642126698152E-13
      0.00000000000000E+00   0.00000000000000E+00   0.00000000000000E+00  -6.18784683038413E-12   1.75667987621792E-14
     -9.44238989333557E-12  -1.56126699249575E-11  -1.26766209837392E-18   3.00000000000000E+02  -9.60441856485261E-13
      6.50952193219134E-03   6.50952193219134E-03   0.00000000000000E+00   1.78795119499714E-10   3.82153234808889E-09
     -3.27467591880790E-13   3.99999999999672E-09   1.30485377976004E-17   3.00000000000000E+02  -7.52286258140805E-12
      3.00000000000000E+02  -2.12207113990688E-19   3.00000000000000E+02   3.00000000034418E+02   3.00000019550308E+02
      1.62500000000000E-10
      0.00000000000000E+00   0.00000000000000E+00   0.00000000000000E+00  -7.72008677188923E-09  -2.60932695511110E-09
      0.00000000000000E+00  -1.03294137270003E-08  -2.60595619981924E-17   3.00000000000000E+02  -5.62960273256231E-11
      0.00000000000000E+00   0.00000000000000E+00   0.00000000000000E+00  -1.45849462925410E-11  -5.11732329551656E-12
     -7.46126853872599E-14  -1.97768822734448E-11   1.32439467523375E-17   3.00000000000000E+02  -1.81210655676239E-12
      0.00000000000000E+00   0.00000000000000E+00   0.00000000000000E+00  -1.41513039686117E-11   7.03761871327028E-14
     -3.67284629446170E-11  -5.08093907260960E-11  -1.27261797333287E-18   3.00000000000000E+02  -4.86974676885707E-12
      3.37281710222380E-02   3.37281710222380E-02   0.00000000000000E+00   4.68511143599472E-10   9.93220136214876E-09
     -7.12505748366284E-13   1.03999999999999E-08   1.40882332191878E-17   3.00000000000000E+02  -2.19656364143293E-11
      3.00000000000000E+02  -4.77466006479048E-19   3.00000000000000E+02   3.00000000158296E+02   3.00000057823130E+02
      2.42500000000000E-10
      0.00000000000000E+00   0.00000000000000E+00   0.00000000000000E+00  -1.15195532226797E-08  -3.88812067359901E-09
      0.00000000000000E+00  -1.54076738962787E-08  -2.72921759098947E-17   3.00000000000000E+02  -8.80163530840463E-11
      0.00000000000000E+00   0.00000000000000E+00   0.00000000000000E+00  -2.05990900127376E-11  -7.00652453752498E-12
     -1.31864921880688E-13  -2.77374794721433E-11   1.32419114032241E-17   3.00000000000000E+02  -3.20155433669516E-12
      0.00000000000000E+00   0.00000000000000E+00   0.00000000000000E+00  -1.96567161286249E-11   1.25901747192214E-13
     -6.50578098676008E-11  -8.45886242490335E-11  -1.27921590902543E-18   3.00000000000000E+02  -9.40277655333206E-12
      6.65298527341446E-02   6.65298527341446E-02   0.00000000000000E+00   7.07524285070837E-10   1.48132824205738E-08
     -8.06705644752054E-13   1.55199999999999E-08   1.53294804156961E-17   3.00000000000000E+02  -3.25508672096854E-11
      3.00000000000000E+02  -1.22019090544645E-18   3.00000000000000E+02   3.00000000289484E+02   3.00000085547030E+02
      3.06500000000000E-10
      0.00000000000000E+00   0.00000000000000E+00   0.00000000000000E+00  -1.45583811417222E-08  -4.90913261362418E-09
      0.00000000000000E+00  -1.94675137553464E-08  -2.85380967902369E-17   3.00000000000000E+02  -1.11097261677250E-10
      0.00000000000000E+00   0.00000000000000E+00   0.00000000000000E+00  -2.51439588081508E-11  -8.21270106815974E-12
     -1.85963091738171E-13  -3.35426229680487E-11   1.32399214170942E-17   3.00000000000000E+02  -4.35960187168763E-12
      0.00000000000000E+00   0.00000000000000E+00   0.00000000000000E+00  -2.36915438752745E-11   1.77946647809855E-13
     -9.14300244577863E-11  -1.14943621685251E-10  -1.28637630183234E-18   3.00000000000000E+02  -1.38691269585643E-11
      1.00047156143195E-01   1.00047156143195E-01   0.00000000000000E+00   9.05673368137976E-10   1.87108751097915E-08
     -5.48477929791196E-13   1.96159999999996E-08   1.65845516749752E-17   3.00000000000000E+02  -3.98923187015408E-11
      3.00000000000000E+02  -2.45806573705878E-18   3.00000000000000E+02   3.00000000409723E+02   3.00000105154343E+02
      3.57700000000000E-10
      0.00000000000000E+00   0.00000000000000E+00   0.00000000000000E+00  -1.69879614107551E-08  -5.72541155834716E-09
      0.00000000000000E+00  -2.27133729691023E-08  -2.97010214862549E-17   3.00000000000000E+02  -1.27865446605892E-10
      0.00000000000000E+00   0.00000000000000E+00   0.00000000000000E+00  -2.87220293567959E-11  -9.09161587982812E-12
     -2.34703501441072E-13  -3.80483487380651E-11   1.32381013074340E-17   3.00000000000000E+02  -5.27623140401396E-12
      0.00000000000000E+00   0.00000000000000E+00   0.00000000000000E+00  -2.68060598100267E-11   2.24265422257885E-13
     -1.14796887772163E-10  -1.41378682159932E-10  -1.29339882958458E-18   3.00000000000000E+02  -1.79582651209952E-11
      1.31677644761661E-01   1.31677644761661E-01   0.00000000000000E+00   1.07030248513756E-09   2.18223616973414E-08
      1.35817521435771E-13   2.28928000000004E-08   1.77563190084055E-17   3.00000000000000E+02  -4.51253783349248E-11
      3.00000000000000E+02  -4.08498694432068E-18   3.00000000000000E+02   3.00000000514082E+02   3.00000120031792E+02
      3.98660000000000E-10
      0.00000000000000E+00   0.00000000000000E+00   0.00000000000000E+00  -1.89290180189206E-08  -6.37948531513779E-09
      0.00000000000000E+00  -2.53085033340584E-08  -3.07376577828180E-17   3.00000000000000E+02  -1.40418969386581E-10
      0.00000000000000E+00   0.00000000000000E+00   0.00000000000000E+00  -3.16359559055943E-11  -9.78790167426289E-12
     -2.77474298932247E-13  -4.17013318787894E-11   1.32364965340264E-17   3.00000000000000E+02  -5.99555851035135E-12
      0.00000000000000E+00   0.00000000000000E+00   0.00000000000000E+00  -2.93217371910627E-11   2.64389883817531E-13
     -1.34977986755614E-10  -1.64035334062859E-10  -1.29988495018898E-18   3.00000000000000E+02  -2.15580072543660E-11
      1.60177443023532E-01   1.60177443023532E-01   0.00000000000000E+00   1.20720689992449E-09   2.43057466046351E-08
      1.28649544042215E-12   2.55142400000000E-08   1.88010461989805E-17   3.00000000000000E+02  -4.90597726001809E-11
      3.00000000000000E+02  -5.92411526557325E-18   3.00000000000000E+02   3.00000000602557E+02   3.00000131570303E+02
      4.31428000000000E-10
      0.00000000000000E+00   0.00000000000000E+00   0.00000000000000E+00  -2.04784227452753E-08  -6.90494074047636E-09
      0.00000000000000E+00  -2.73833634857517E-08  -3.16349558375191E-17   3.00000000000000E+02  -1.50026488572711E-10
      0.00000000000000E+00   0.00000000000000E+00   0.00000000000000E+00  -3.40693903069857E-11  -1.03634355432232E-11
     -3.14404441617148E-13  -4.47472302918260E-11   1.32351134150515E-17   3.00000000000000E+02  -6.56149869351661E-12
      0.00000000000000E+00   0.00000000000000E+00   0.00000000000000E+00  -3.14260980186658E-11   2.98608850865867E-13
     -1.52153794789054E-10  -1.83281283956854E-10  -1.30564564243219E-18   3.00000000000000E+02  -2.46538995568001E-11
      1.85098382332875E-01   1.85098382332875E-01   0.00000000000000E+00   1.32099682063676E-09   2.62875103820267E-08
      2.88479733691993E-12   2.76113920000003E-08   1.97054880648997E-17   3.00000000000000E+02  -5.20997482378142E-11
      3.00000000000000E+02  -7.85166321765523E-18   3.00000000000000E+02   3.00000000676506E+02   3.00000140589365E+02
      4.57642400000000E-10
      0.00000000000000E+00   0.00000000000000E+00   0.00000000000000E+00  -2.17143774557996E-08  -7.32788284381674E-09
      0.00000000000000E+00  -2.90422602996164E-08  -3.23962812659173E-17   3.00000000000000E+02  -1.57357174652833E-10
      0.00000000000000E+00   0.00000000000000E+00   0.00000000000000E+00  -3.61311546303448E-11  -1.08484823417422E-11
     -3.45934839598425E-13  -4.73255718116854E-11   1.32339396707872E-17   3.00000000000000E+02  -7.00674413230904E-12
      0.00000000000000E+00   0.00000000000000E+00   0.00000000000000E+00  -3.32238202004630E-11   3.27491418298858E-13
     -1.66631399789935E-10  -1.99527728572099E-10  -1.31062543781366E-18   3.00000000000000E+02  -2.72762450233595E-11
      2.06440660366766E-01   2.06440660366766E-01   0.00000000000000E+00   1.41533162817122E-09   2.78689303444835E-08
      4.85162734536841E-12   2.92891136000001E-08   2.04729670329438E-17   3.00000000000000E+02  -5.44087112140877E-11
      3.00000000000000E+02  -9.70847546507363E-18   3.00000000000000E+02   3.00000000737539E+02   3.00000147372045E+02
      4.78613920000000E-10
      0.00000000000000E+00   0.00000000000000E+00   0.00000000000000E+00  -2.27000307200790E-08  -7.66857889888367E-09
      0.00000000000000E+00  -3.03686096189627E-08  -3.30331571699136E-17   3.00000000000000E+02  -1.62812578676266E-10
      0.00000000000000E+00   0.00000000000000E+00   0.00000000000000E+00  -3.78855753413689E-11  -1.12595892920248E-11
     -3.72612880888075E-13  -4.95177775142817E-11   1.32329549462630E-17   3.00000000000000E+02  -7.35523556517780E-12
      0.00000000000000E+00   0.00000000000000E+00   0.00000000000000E+00  -3.47711016966057E-11   3.51677687941903E-13
     -1.78744059514248E-10  -2.13163483522912E-10  -1.31484748989755E-18   3.00000000000000E+02  -2.94734554851282E-11
      2.24442038538587E-01   2.24442038538587E-01   0.00000000000000E+00   1.49317600007000E-09   2.91310502262343E-08
      7.06465369552898E-12   3.06312908799998E-08   2.11150497135482E-17   3.00000000000000E+02  -5.60718395109054E-11
      3.00000000000000E+02  -1.14591841554967E-17   3.00000000000000E+02   3.00000000787297E+02   3.00000152124716E+02
      5.12168352000000E-10
      0.00000000000000E+00   0.00000000000000E+00   0.00000000000000E+00  -2.42749483120988E-08  -8.21448949382032E-09
      0.00000000000000E+00  -3.24894378059192E-08  -3.41233218014906E-17   3.00000000000000E+02  -1.74505325496442E-10
      0.00000000000000E+00   0.00000000000000E+00   0.00000000000000E+00  -4.07077708564444E-11  -1.19184108646628E-11
     -4.18757442559210E-13  -5.30449391636664E-11   1.32312617710322E-17   3.00000000000000E+02  -7.96061892599807E-12
      0.00000000000000E+00   0.00000000000000E+00   0.00000000000000E+00  -3.72779341161548E-11   3.93033359454780E-13
     -1.99406882160525E-10  -2.36291782917225E-10  -1.32219386214236E-18   3.00000000000000E+02  -3.32514193056939E-11
      2.55582992197641E-01   2.55582992197641E-01   0.00000000000000E+00   1.61559135844241E-09   3.11507629829466E-08
      1.24201866110365E-11   3.27787745280000E-08   2.22142538926008E-17   3.00000000000000E+02  -6.07223268518218E-11
      3.00000000000000E+02  -1.50490211671721E-17   3.00000000000000E+02   3.00000000875560E+02   3.00000164376687E+02
      5.39011897600000E-10
      0.00000000000000E+00   0.00000000000000E+00   0.00000000000000E+00  -2.55246738036236E-08  -8.65906216903537E-09
      0.00000000000000E+00  -3.41837359726590E-08  -3.50409344768509E-17   3.00000000000000E+02  -1.80478796605149E-10
      0.00000000000000E+00   0.00000000000000E+00   0.00000000000000E+00  -4.34287447832692E-11  -1.25480757790714E-11
     -4.59311700011137E-13  -5.64361322623517E-11   1.32298168181358E-17   3.00000000000000E+02  -8.41481586966172E-12
      0.00000000000000E+00   0.00000000000000E+00   0.00000000000000E+00  -3.97839599385691E-11   4.28701434706593E-13
     -2.17234082974700E-10  -2.56589341478562E-10  -1.32843700702830E-18   3.00000000000000E+02  -3.64791059076383E-11
      2.82118898541527E-01   2.82118898541527E-01   0.00000000000000E+00   1.72196381997101E-09   3.27556980053783E-08
      1.90996210505750E-11   3.44967614463999E-08   2.31395546657436E-17   3.00000000000000E+02  -6.19338575208981E-11
      3.00000000000000E+02  -1.85150706956863E-17   3.00000000000000E+02   3.00000000944721E+02   3.00000167168363E+02
      5.60486734080000E-10
      0.00000000000000E+00   0.00000000000000E+00   0.00000000000000E+00  -2.65196396294047E-08  -9.01800721232574E-09
      0.00000000000000E+00  -3.55376468417304E-08  -3.58040996316610E-17   3.00000000000000E+02  -1.82207480810795E-10
      0.00000000000000E+00   0.00000000000000E+00   0.00000000000000E+00  -4.58476771015473E-11  -1.31036371380852E-11
     -4.94506095774729E-13  -5.94458203354072E-11   1.32285967201243E-17   3.00000000000000E+02  -8.72289868649804E-12
      0.00000000000000E+00   0.00000000000000E+00   0.00000000000000E+00  -4.20708314094623E-11   4.59151820812419E-13
     -2.32446639466034E-10  -2.74058319054684E-10  -1.33364553752949E-18   3.00000000000000E+02  -3.92132410027093E-11
      3.04406629024710E-01   3.04406629024710E-01   0.00000000000000E+00   1.80862441730951E-09   3.40358543548639E-08
      2.66722089470577E-11   3.58711509811205E-08   2.39091484490664E-17   3.00000000000000E+02  -6.15897338223441E-11
      3.00000000000000E+02  -2.16981774055461E-17   3.00000000000000E+02   3.00000000997463E+02   3.00000165172926E+02
      5.94846472448000E-10
      0.00000000000000E+00   0.00000000000000E+00   0.00000000000000E+00  -2.81114158891420E-08  -9.58908157020454E-09
      0.00000000000000E+00  -3.77004974593465E-08  -3.70994788607077E-17   3.00000000000000E+02  -1.84247453050731E-10
      0.00000000000000E+00   0.00000000000000E+00   0.00000000000000E+00  -5.00000190660493E-11  -1.40458438370495E-11
     -5.58525148361008E-13  -6.46043880514597E-11   1.32264689521594E-17   3.00000000000000E+02  -9.12619398301905E-12
      0.00000000000000E+00   0.00000000000000E+00   0.00000000000000E+00  -4.61309995495317E-11   5.13315831205958E-13
     -2.59454705555188E-10  -3.05072389273514E-10  -1.34240762162069E-18   3.00000000000000E+02  -4.40406951324880E-11
      3.42643228168139E-01   3.42643228168139E-01   0.00000000000000E+00   1.93984634714225E-09   3.60851395492594E-08
      4.51883402698227E-11   3.80701742366715E-08   2.52154175301690E-17   3.00000000000000E+02  -6.25284240844189E-11
      3.00000000000000E+02  -2.80643908252656E-17   3.00000000000000E+02   3.00000001084151E+02   3.00000165278467E+02
      6.22334263142400E-10
      0.00000000000000E+00   0.00000000000000E+00   0.00000000000000E+00  -2.93720378439367E-08  -1.00536957177880E-08
      0.00000000000000E+00  -3.94257335617247E-08  -3.81832051728256E-17   3.00000000000000E+02  -1.76614856278704E-10
      0.00000000000000E+00   0.00000000000000E+00   0.00000000000000E+00  -5.42593297436128E-11  -1.49992584581455E-11
     -6.18286086636062E-13  -6.98768742883944E-11   1.32246233378552E-17   3.00000000000000E+02  -9.27142829654951E-12
      0.00000000000000E+00   0.00000000000000E+00   0.00000000000000E+00  -5.04899796282285E-11   5.62196473953134E-13
     -2.83854621946551E-10  -3.33782405100827E-10  -1.34957676562591E-18   3.00000000000000E+02  -4.82937022791662E-11
      3.74953050266191E-01   3.74953050266191E-01   0.00000000000000E+00   2.04921930995934E-09   3.77118360772587E-08
      6.83374538958119E-11   3.98293928411138E-08   2.63081586005964E-17   3.00000000000000E+02  -5.80371488324363E-11
      3.00000000000000E+02  -3.41476614263306E-17   3.00000000000000E+02   3.00000001142763E+02   3.00000152541285E+02
      6.66314728253440E-10
      0.00000000000000E+00   0.00000000000000E+00   0.00000000000000E+00  -3.13833786473075E-08  -1.07884292460568E-08
      0.00000000000000E+00  -4.21718078933643E-08  -4.00379408985492E-17   3.00000000000000E+02  -1.61215153900549E-10
      0.00000000000000E+00   0.00000000000000E+00   0.00000000000000E+00  -6.29053176304161E-11  -1.68940381984208E-11
     -7.44332177244744E-13  -8.05436880060816E-11   1.32212071229712E-17   3.00000000000000E+02  -9.22369556587990E-12
      0.00000000000000E+00   0.00000000000000E+00   0.00000000000000E+00  -5.98411099584604E-11   6.59989868543502E-13
     -3.32609906759760E-10  -3.91791026849677E-10  -1.36082313463830E-18   3.00000000000000E+02  -5.65459356063561E-11
      4.30700449366991E-01   4.30700449366991E-01   0.00000000000000E+00   2.20848981744605E-09   4.03041834860517E-08
      1.31469304722363E-10   4.26441426082201E-08   2.81775569102163E-17   3.00000000000000E+02  -5.43112150738022E-11
      3.00000000000000E+02  -4.69154561180998E-17   3.00000000000000E+02   3.00000001237638E+02   3.00000136297416E+02
      7.01499100342272E-10
      0.00000000000000E+00   0.00000000000000E+00   0.00000000000000E+00  -3.29664052855346E-08  -1.13824693329068E-08
      0.00000000000000E+00  -4.43488746184414E-08  -4.15983282048455E-17   3.00000000000000E+02  -1.41119768638251E-10
      0.00000000000000E+00   0.00000000000000E+00   0.00000000000000E+00  -7.32439140084893E-11  -1.91229898475341E-11
     -8.85231415920462E-13  -9.32521352719439E-11   1.32180337021619E-17   3.00000000000000E+02  -8.97402485432919E-12
      0.00000000000000E+00   0.00000000000000E+00   0.00000000000000E+00  -7.15587006361333E-11   7.60960909750490E-13
     -3.83017928465677E-10  -4.53815668192060E-10  -1.36896774332322E-18   3.00000000000000E+02  -6.46704376842082E-11
      4.77853971355980E-01   4.77853971355980E-01   0.00000000000000E+00   2.33230115634695E-09   4.23453417664581E-08
      2.18299499100418E-10   4.48959424219054E-08   2.97492622460067E-17   3.00000000000000E+02  -4.91232523999015E-11
      3.00000000000000E+02  -5.94179919173796E-17   3.00000000000000E+02   3.00000001312059E+02   3.00000112715779E+02
      7.29646598013338E-10
      0.00000000000000E+00   0.00000000000000E+00   0.00000000000000E+00  -3.42130732135680E-08  -1.18581220626868E-08
      0.00000000000000E+00  -4.60711952762548E-08  -4.28951170665869E-17   3.00000000000000E+02  -1.26254479931326E-10
      0.00000000000000E+00   0.00000000000000E+00   0.00000000000000E+00  -8.47785529516756E-11  -2.15822496029624E-11
     -1.04196378893727E-12  -1.07402766343575E-10   1.32151034883151E-17   3.00000000000000E+02  -8.73986212215737E-12
      0.00000000000000E+00   0.00000000000000E+00   0.00000000000000E+00  -8.50273295984960E-11   8.64302478042894E-13
     -4.34621203134758E-10  -5.18784230255212E-10  -1.37436954291816E-18   3.00000000000000E+02  -7.26545849250788E-11
      5.17122741612093E-01   5.17122741612093E-01   0.00000000000000E+00   2.42371493400694E-09   4.39501539437460E-08
      3.23513395100676E-10   4.66973822728536E-08   3.10543831211900E-17   3.00000000000000E+02  -4.87068726086983E-11
      3.00000000000000E+02  -7.10540153345300E-17   3.00000000000000E+02   3.00000001384835E+02   3.00000105532467E+02
      7.40905597081764E-10
      0.00000000000000E+00   0.00000000000000E+00   0.00000000000000E+00  -3.47037054899462E-08  -1.20508215454253E-08
      0.00000000000000E+00  -4.67545270353715E-08  -4.34215262429230E-17   3.00000000000000E+02  -1.20232935772763E-10
      0.00000000000000E+00   0.00000000000000E+00   0.00000000000000E+00  -9.05638512353202E-11  -2.28121951380427E-11
     -1.11711354139472E-12  -1.14493159914758E-10   1.32138532342707E-17   3.00000000000000E+02  -8.64553983857412E-12
      0.00000000000000E+00   0.00000000000000E+00   0.00000000000000E+00  -9.18696838410483E-11   9.10999667948534E-13
     -4.57979333772615E-10  -5.48938017945715E-10  -1.37627771635299E-18   3.00000000000000E+02  -7.61579516024732E-11
      5.33075986358106E-01   5.33075986358106E-01   0.00000000000000E+00   2.45941182993056E-09   4.45814090798911E-08
      3.77137303410453E-10   4.74179582132321E-08   3.15839507250053E-17   3.00000000000000E+02  -4.88985589816925E-11
      3.00000000000000E+02  -7.60055146609767E-17   3.00000000000000E+02   3.00000001416629E+02   3.00000110699103E+02
      7.58919995591246E-10
      0.00000000000000E+00   0.00000000000000E+00   0.00000000000000E+00  -3.54802393400498E-08  -1.23567493348826E-08
      0.00000000000000E+00  -4.78369886749324E-08  -4.42832808204068E-17   3.00000000000000E+02  -1.14074585848491E-10
      0.00000000000000E+00   0.00000000000000E+00   0.00000000000000E+00  -1.01317422421685E-10  -2.50843510760526E-11
     -1.26885107804886E-12  -1.27670624575786E-10   1.32116200044139E-17   3.00000000000000E+02  -8.55185236027412E-12
      0.00000000000000E+00   0.00000000000000E+00   0.00000000000000E+00  -1.04727550400597E-10   1.00020958549376E-12
     -5.02493077516086E-10  -6.06220418331190E-10  -1.37850538573485E-18   3.00000000000000E+02  -8.27412766375594E-11
      5.59191270459264E-01   5.59191270459264E-01   0.00000000000000E+00   2.51155883528919E-09   4.55789571326518E-08
      4.80363749898485E-10   4.85708797178395E-08   3.24501662017279E-17   3.00000000000000E+02  -5.27297357497326E-11
      3.00000000000000E+02  -8.46706384822579E-17   3.00000000000000E+02   3.00000001481630E+02   3.00000120449112E+02
      7.87743033206417E-10
      0.00000000000000E+00   0.00000000000000E+00   0.00000000000000E+00  -3.66840067620029E-08  -1.28493399917578E-08
      0.00000000000000E+00  -4.95333467537607E-08  -4.57109823370956E-17   3.00000000000000E+02  -1.11618278801396E-10
      0.00000000000000E+00   0.00000000000000E+00   0.00000000000000E+00  -1.23018472704574E-10  -2.96433005787935E-11
     -1.62823133567837E-12  -1.54290004619046E-10   1.32072962973614E-17   3.00000000000000E+02  -8.70216601327213E-12
      0.00000000000000E+00   0.00000000000000E+00   0.00000000000000E+00  -1.30992647418252E-10   1.19280162076749E-12
     -5.98117521033278E-10  -7.27917366830762E-10  -1.37919253850018E-18   3.00000000000000E+02  -9.67860310749181E-11
      6.02433360358172E-01   6.02433360358172E-01   0.00000000000000E+00   2.58918484088637E-09   4.71246718355639E-08
      7.01697448760222E-10   5.04155541252105E-08   3.38828785782346E-17   3.00000000000000E+02  -6.37554535214802E-11
      3.00000000000000E+02  -1.00745327367042E-16   3.00000000000000E+02   3.00000001634731E+02   3.00000141332193E+02
      8.33859893390691E-10
      0.00000000000000E+00   0.00000000000000E+00   0.00000000000000E+00  -3.84705110648587E-08  -1.36416056841663E-08
      0.00000000000000E+00  -5.21121167490250E-08  -4.81142295391171E-17   3.00000000000000E+02  -1.27194795406248E-10
      0.00000000000000E+00   0.00000000000000E+00   0.00000000000000E+00  -1.71526836243109E-10  -3.97503070410575E-11
     -2.81606332739424E-12  -2.14093206611561E-10   1.31977051895404E-17   3.00000000000000E+02  -1.01807095495524E-11
      0.00000000000000E+00   0.00000000000000E+00   0.00000000000000E+00  -1.90607896706029E-10   1.71021906356092E-12
     -8.51925543725605E-10  -1.04082322136807E-09  -1.36918976832239E-18   3.00000000000000E+02  -1.34748419847560E-10
      6.75075028107263E-01   6.75075028107263E-01   0.00000000000000E+00   2.69489563359258E-09   4.94189180663713E-08
      1.25321947704052E-09   5.33670331770044E-08   3.62857141178992E-17   3.00000000000000E+02  -9.71617077163385E-11
      3.00000000000000E+02  -1.33248383659920E-16   2.99999994729567E+02   3.00000002087514E+02   3.00000197787875E+02
      9.07646869685530E-10
      0.00000000000000E+00   0.00000000000000E+00   0.00000000000000E+00  -4.07693193639788E-08  -1.48421598417904E-08
      0.00000000000000E+00  -5.56114792057692E-08  -5.22176324369941E-17   3.00000000000000E+02  -2.32114184060553E-10
      0.00000000000000E+00   0.00000000000000E+00   0.00000000000000E+00  -2.81267362044474E-10  -6.22160409078304E-11
     -1.02332189351060E-11  -3.53716621887411E-10   1.31727935869515E-17   3.00000000000000E+02  -1.86253633594908E-11
      0.00000000000000E+00   0.00000000000000E+00   0.00000000000000E+00  -3.28536075715604E-10   3.70107824557711E-12
     -1.79936883474712E-09  -2.12420383221715E-09  -1.31084387073156E-18   3.00000000000000E+02  -2.88482879338803E-10
      7.98470404176234E-01   7.98470404176234E-01   0.00000000000000E+00   2.80581582047559E-09   5.23773992162738E-08