DF-ISE text

Info {
  version   = 1.0
  type      = xyplot
  datasets  = [
    "time"
    "gate OuterVoltage" "gate InnerVoltage" "gate QuasiFermiPotential" "gate DisplacementCurrent" "gate eCurrent"
    "gate hCurrent" "gate TotalCurrent" "gate Charge" "gate Temperature" "gate lHeatFlux"
    "source OuterVoltage" "source InnerVoltage" "source QuasiFermiPotential" "source DisplacementCurrent" "source eCurrent"
    "source hCurrent" "source TotalCurrent" "source Charge" "source Temperature" "source lHeatFlux"
    "body OuterVoltage" "body InnerVoltage" "body QuasiFermiPotential" "body DisplacementCurrent" "body eCurrent"
    "body hCurrent" "body TotalCurrent" "body Charge" "body Temperature" "body lHeatFlux"
    "drain OuterVoltage" "drain InnerVoltage" "drain QuasiFermiPotential" "drain DisplacementCurrent" "drain eCurrent"
    "drain hCurrent" "drain TotalCurrent" "drain Charge" "drain Temperature" "drain lHeatFlux"
    "bodytherm Temperature" "bodytherm lHeatFlux" "Tmin" "Tave" "Tmax" ]
  functions = [
    Time
    OuterVoltage InnerVoltage QuasiFermiPotential DisplacementCurrent eCurrent
    hCurrent TotalCurrent Charge Temperature lHeatFlux
    OuterVoltage InnerVoltage QuasiFermiPotential DisplacementCurrent eCurrent
    hCurrent TotalCurrent Charge Temperature lHeatFlux
    OuterVoltage InnerVoltage QuasiFermiPotential DisplacementCurrent eCurrent
    hCurrent TotalCurrent Charge Temperature lHeatFlux
    OuterVoltage InnerVoltage QuasiFermiPotential DisplacementCurrent eCurrent
    hCurrent TotalCurrent Charge Temperature lHeatFlux
    Temperature lHeatFlux MinTemperature AveTemperature MaxTemperature ]
}

Data {
      0.00000000000000E+00
      0.00000000000000E+00   0.00000000000000E+00   0.00000000000000E+00   0.00000000000000E+00   0.00000000000000E+00
      0.00000000000000E+00   0.00000000000000E+00  -2.47780486439482E-17   3.00000000000000E+02   0.00000000000000E+00
      0.00000000000000E+00   0.00000000000000E+00   0.00000000000000E+00   0.00000000000000E+00   1.44231874457110E-22
     -1.43952815428262E-22   2.79059028848222E-25   1.32462570737700E-17   3.00000000000000E+02   0.00000000000000E+00
      0.00000000000000E+00   0.00000000000000E+00   0.00000000000000E+00   0.00000000000000E+00   2.45733566431317E-21
     -2.45772399823986E-21  -3.88333926695001E-25  -1.26681392880835E-18   3.00000000000000E+02   0.00000000000000E+00
      0.00000000000000E+00   0.00000000000000E+00   0.00000000000000E+00   0.00000000000000E+00   1.37857725468512E-22
     -1.37748450570667E-22   1.09274897844752E-25   1.27986054989865E-17   3.00000000000000E+02   0.00000000000000E+00
      3.00000000000000E+02   0.00000000000000E+00   3.00000000000000E+02   3.00000000000016E+02   3.00000000000000E+02
      0.00000000000000E+00
      0.00000000000000E+00   0.00000000000000E+00   0.00000000000000E+00   0.00000000000000E+00   0.00000000000000E+00
      0.00000000000000E+00   0.00000000000000E+00  -2.47781084447079E-17   3.00000000000000E+02   0.00000000000000E+00
      0.00000000000000E+00   0.00000000000000E+00   0.00000000000000E+00   0.00000000000000E+00   5.65807050156082E-17
     -7.34527637760288E-19   5.58461773778479E-17   1.32462230477158E-17   3.00000000000000E+02   0.00000000000000E+00
      0.00000000000000E+00   0.00000000000000E+00   0.00000000000000E+00   0.00000000000000E+00  -9.02388601756051E-17
      5.06203106517537E-19  -8.97326570690876E-17  -1.26671057837367E-18   3.00000000000000E+02   0.00000000000000E+00
     -2.57896256444510E-10  -2.57896256444510E-10   0.00000000000000E+00   0.00000000000000E+00   5.90500782160026E-17
     -2.51635985247624E-17   3.38864796912402E-17   1.27985959753658E-17   3.00000000000000E+02   0.00000000000000E+00
      3.00000000000000E+02   0.00000000000000E+00   3.00000000000000E+02   3.00000000000016E+02   3.00000000000000E+02
      0.00000000000000E+00
      0.00000000000000E+00   0.00000000000000E+00   0.00000000000000E+00   0.00000000000000E+00   0.00000000000000E+00
      0.00000000000000E+00   0.00000000000000E+00  -2.47781084447740E-17   3.00000000000000E+02   0.00000000000000E+00
      0.00000000000000E+00   0.00000000000000E+00   0.00000000000000E+00   0.00000000000000E+00   5.79187807319922E-17
     -1.86052192739694E-18   5.60582588045953E-17   1.32462230476963E-17   3.00000000000000E+02   0.00000000000000E+00
      0.00000000000000E+00   0.00000000000000E+00   0.00000000000000E+00   0.00000000000000E+00  -9.02386749999436E-17
      8.39008346490154E-20  -9.01547741652946E-17  -1.26671057827713E-18   3.00000000000000E+02   0.00000000000000E+00
     -2.57897174891882E-10  -2.57897174891882E-10   0.00000000000000E+00   0.00000000000000E+00   5.60293814174894E-17
     -2.19328660567898E-17   3.40965153606995E-17   1.27985959753549E-17   3.00000000000000E+02   0.00000000000000E+00
      3.00000000000000E+02   0.00000000000000E+00   3.00000000000000E+02   3.00000000000016E+02   3.00000000000000E+02
      0.00000000000000E+00
      0.00000000000000E+00   0.00000000000000E+00   0.00000000000000E+00   0.00000000000000E+00   0.00000000000000E+00
      0.00000000000000E+00   0.00000000000000E+00  -2.47781084557795E-17   3.00000000000000E+02  -5.66562843801538E-19
      0.00000000000000E+00   0.00000000000000E+00   0.00000000000000E+00   0.00000000000000E+00   6.57476939124488E-21
     -1.05404724319752E-20  -3.96570304073029E-21   1.32462230477284E-17   3.00000000000000E+02  -3.37619128817900E-19
      0.00000000000000E+00   0.00000000000000E+00   0.00000000000000E+00   0.00000000000000E+00   2.15728149733663E-20
     -1.76117555631954E-20   3.96105941017081E-21  -1.26671057839692E-18   3.00000000000000E+02  -1.48082645105957E-18
      2.81127290789278E-11   2.81127290789278E-11   0.00000000000000E+00   0.00000000000000E+00   7.72440881713561E-20
     -7.72394445407967E-20   4.64363055939763E-24   1.27985959864480E-17   3.00000000000000E+02  -1.19227388507332E-18
      3.00000000000000E+02  -2.12207113990688E-19   3.00000000000000E+02   3.00000000000016E+02   3.00000000000001E+02
      3.12500000000000E-11
      0.00000000000000E+00   0.00000000000000E+00   0.00000000000000E+00  -1.90289031472079E-09  -6.45741508288404E-10
      0.00000000000000E+00  -2.54863182300919E-09  -2.48577532002486E-17   3.00000000000000E+02  -7.51749682466150E-12
      0.00000000000000E+00   0.00000000000000E+00   0.00000000000000E+00  -4.23073464668020E-12  -1.14314943536488E-12
     -9.27628368072079E-15  -5.38316036572579E-12   1.32460606696774E-17   3.00000000000000E+02  -1.24000966689864E-13
      0.00000000000000E+00   0.00000000000000E+00   0.00000000000000E+00  -4.25684162810637E-12   7.59039770294028E-15
     -4.23576539775763E-12  -8.48501662816106E-12  -1.26696911733193E-18   3.00000000000000E+02  -3.00424465238030E-13
      2.08414397479663E-03   2.08414397479663E-03   0.00000000000000E+00   1.14371142562155E-10   2.44835125510757E-09
     -2.22397666651086E-13   2.56250000000308E-09   1.28786616479031E-17   3.00000000000000E+02  -4.23598868580343E-12
      3.00000000000000E+02  -2.12207113990688E-19   3.00000000000000E+02   3.00000000012358E+02   3.00000010614764E+02
      8.12500000000000E-11
      0.00000000000000E+00   0.00000000000000E+00   0.00000000000000E+00  -4.94676614963546E-09  -1.67604770414752E-09
      0.00000000000000E+00  -6.62281385378298E-09  -2.51888938929377E-17   3.00000000000000E+02  -2.83171480085484E-11
      0.00000000000000E+00   0.00000000000000E+00   0.00000000000000E+00  -1.03608382161837E-11  -3.17921654943207E-12
     -3.31563017893863E-14  -1.35732110674052E-11   1.32454236064448E-17   3.00000000000000E+02  -6.80845584597013E-13
      0.00000000000000E+00   0.00000000000000E+00   0.00000000000000E+00  -1.03075837535262E-11   2.94808511497735E-14
     -1.58348322475128E-11  -2.61129351498892E-11  -1.26824227232455E-18   3.00000000000000E+02  -1.59560636475208E-12
      1.07667370995496E-02   1.07667370995496E-02   0.00000000000000E+00   2.98136528859534E-10   6.36490768480974E-09
     -5.44213669017026E-13   6.66250000000026E-09   1.32117125588175E-17   3.00000000000000E+02  -1.26447015197843E-11
      3.00000000000000E+02  -2.12207113990688E-19   3.00000000000000E+02   3.00000000057408E+02   3.00000033121284E+02
      1.61250000000000E-10
      0.00000000000000E+00   0.00000000000000E+00   0.00000000000000E+00  -9.81572254236126E-09  -3.31889018315225E-09
      0.00000000000000E+00  -1.31346127255135E-08  -2.62396629109788E-17   3.00000000000000E+02  -6.97043582196205E-11
      0.00000000000000E+00   0.00000000000000E+00   0.00000000000000E+00  -1.89024594578810E-11  -6.21449054813904E-12
     -9.06166898041453E-14  -2.52075666958242E-11   1.32435599021169E-17   3.00000000000000E+02  -2.18268237427751E-12
      0.00000000000000E+00   0.00000000000000E+00   0.00000000000000E+00  -1.84263503928781E-11   8.47102608201380E-14
     -4.43380676583696E-11  -6.26797077904275E-11  -1.27313372151637E-18   3.00000000000000E+02  -5.65401147469163E-12
      3.84921640176030E-02   3.84921640176030E-02   0.00000000000000E+00   5.96488258529798E-10   1.26269367093892E-08
     -9.24967919284013E-13   1.32224999999997E-08   1.42692367303783E-17   3.00000000000000E+02  -2.74292091486662E-11
      3.00000000000000E+02  -3.53678523317813E-19   3.00000000000000E+02   3.00000000183574E+02   3.00000072349553E+02
      2.25250000000000E-10
      0.00000000000000E+00   0.00000000000000E+00   0.00000000000000E+00  -1.37102458534497E-08  -4.63000676584267E-09
      0.00000000000000E+00  -1.83402526192924E-08  -2.74134390786135E-17   3.00000000000000E+02  -1.01463547797069E-10
      0.00000000000000E+00   0.00000000000000E+00   0.00000000000000E+00  -2.52060514265350E-11  -8.08003634546292E-12
     -1.48329182474213E-13  -3.34344169544721E-11   1.32415687496778E-17   3.00000000000000E+02  -3.57400575083694E-12
      0.00000000000000E+00   0.00000000000000E+00   0.00000000000000E+00  -2.42326371680953E-11   1.40308303399864E-13
     -7.27206348883115E-11  -9.68129637530069E-11  -1.27917620580504E-18   3.00000000000000E+02  -1.01020417428369E-11
      6.97633956507975E-02   6.97633956507975E-02   0.00000000000000E+00   8.42929994245951E-10   1.76285893061473E-08
     -1.01930039344339E-12   1.84704999999999E-08   1.54510465347407E-17   3.00000000000000E+02  -3.79053004559519E-11
      3.00000000000000E+02  -6.71989194303844E-19   3.00000000000000E+02   3.00000000309021E+02   3.00000099836690E+02
      2.76450000000000E-10
      0.00000000000000E+00   0.00000000000000E+00   0.00000000000000E+00  -1.68251080363833E-08  -5.67712390135620E-09
      0.00000000000000E+00  -2.25022319377395E-08  -2.85655533538257E-17   3.00000000000000E+02  -1.24508627912545E-10
      0.00000000000000E+00   0.00000000000000E+00   0.00000000000000E+00  -3.00359027926230E-11  -9.32927329944931E-12
     -2.02018656017135E-13  -3.95671947480895E-11   1.32396686278892E-17   3.00000000000000E+02  -4.71612281161227E-12
      0.00000000000000E+00   0.00000000000000E+00   0.00000000000000E+00  -2.85748759332985E-11   1.91560107822906E-13
     -9.87175516868321E-11  -1.27100867512308E-10  -1.28551393760139E-18   3.00000000000000E+02  -1.43944756490916E-11
      1.00771941467161E-01   1.00771941467161E-01   0.00000000000000E+00   1.04691174333316E-09   2.16227779753998E-08
     -7.89718732977947E-13   2.26689000000000E-08   1.66113986635381E-17   3.00000000000000E+02  -4.51861156194044E-11
      3.00000000000000E+02  -1.20250697928056E-18   3.00000000000000E+02   3.00000000421222E+02   3.00000119514515E+02
      3.17410000000000E-10
      0.00000000000000E+00   0.00000000000000E+00   0.00000000000000E+00  -1.93155607789549E-08  -6.51441185702076E-09
      0.00000000000000E+00  -2.58299726359757E-08  -2.96235490329954E-17   3.00000000000000E+02  -1.41324287298185E-10
      0.00000000000000E+00   0.00000000000000E+00   0.00000000000000E+00  -3.38552959996724E-11  -1.02592547717095E-11
     -2.49992291602639E-13  -4.43645430629846E-11   1.32379539684911E-17   3.00000000000000E+02  -5.61767758914227E-12
      0.00000000000000E+00   0.00000000000000E+00   0.00000000000000E+00  -3.19542898182021E-11   2.36796425076805E-13
     -1.21565327567920E-10  -1.53282820961045E-10  -1.29161289701743E-18   3.00000000000000E+02  -1.82865492454946E-11
      1.29536186013500E-01   1.29536186013500E-01   0.00000000000000E+00   1.21594284122080E-09   2.48118773764487E-08
     -2.00217669713866E-13   2.60276199999998E-08   1.76772079615217E-17   3.00000000000000E+02  -5.04085203989113E-11
      3.00000000000000E+02  -1.90986402591618E-18   3.00000000000000E+02   3.00000000517396E+02   3.00000134468171E+02
      3.50178000000000E-10
      0.00000000000000E+00   0.00000000000000E+00   0.00000000000000E+00  -2.13055746421240E-08  -7.18519382897941E-09
      0.00000000000000E+00  -2.84907684711034E-08  -3.05571345342565E-17   3.00000000000000E+02  -1.53924977016559E-10
      0.00000000000000E+00   0.00000000000000E+00   0.00000000000000E+00  -3.69535141223977E-11  -1.09967748693788E-11
     -2.91835750645339E-13  -4.82421247424219E-11   1.32364559244152E-17   3.00000000000000E+02  -6.32440253055522E-12
      0.00000000000000E+00   0.00000000000000E+00   0.00000000000000E+00  -3.46745297459989E-11   2.75760185726832E-13
     -1.41186634593858E-10  -1.75585404154130E-10  -1.29718124456491E-18   3.00000000000000E+02  -2.16932034274627E-11
      1.55164476677477E-01   1.55164476677477E-01   0.00000000000000E+00   1.35602397165114E-09   2.73578198600443E-08
      7.52168304508592E-13   2.87145960000000E-08   1.86178598544062E-17   3.00000000000000E+02  -5.43330250630505E-11
      3.00000000000000E+02  -2.70564070338125E-18   3.00000000000000E+02   3.00000000598249E+02   3.00000146035523E+02
      4.02606800000000E-10
      0.00000000000000E+00   0.00000000000000E+00   0.00000000000000E+00  -2.44834318272542E-08  -8.26158984463413E-09
      0.00000000000000E+00  -3.27450216718883E-08  -3.22739167264875E-17   3.00000000000000E+02  -1.80753453043007E-10
      0.00000000000000E+00   0.00000000000000E+00   0.00000000000000E+00  -4.18484629535465E-11  -1.21520687951058E-11
     -3.67134740470250E-13  -5.43676664891226E-11   1.32337394917781E-17   3.00000000000000E+02  -7.61441553283772E-12
      0.00000000000000E+00   0.00000000000000E+00   0.00000000000000E+00  -3.89196869517329E-11   3.44781594910789E-13
     -1.75793356265694E-10  -2.14368261622516E-10  -1.30792014476120E-18   3.00000000000000E+02  -2.78739450343197E-11
      2.02962809798606E-01   2.02962809798606E-01   0.00000000000000E+00   1.58330139034096E-09   3.14263260860732E-08
      4.13012358564006E-12   3.30137575999998E-08   2.03480973794707E-17   3.00000000000000E+02  -6.42434545700827E-11
      3.00000000000000E+02  -4.96918325261519E-18   3.00000000000000E+02   3.00000000752696E+02   3.00000174248959E+02
      4.44549840000000E-10
      0.00000000000000E+00   0.00000000000000E+00   0.00000000000000E+00  -2.70090318646992E-08  -9.13480266017388E-09
      0.00000000000000E+00  -3.61438345248731E-08  -3.37898990237177E-17   3.00000000000000E+02  -1.98980856548239E-10
      0.00000000000000E+00   0.00000000000000E+00   0.00000000000000E+00  -4.64744529806049E-11  -1.32332190196147E-11
     -4.35750735107328E-13  -6.01434227353270E-11   1.32313253709242E-17   3.00000000000000E+02  -8.64181416286471E-12
      0.00000000000000E+00   0.00000000000000E+00   0.00000000000000E+00  -4.30451657939688E-11   4.06071997749087E-13
     -2.06469838595332E-10  -2.49108932391551E-10  -1.31770844582812E-18   3.00000000000000E+02  -3.33716734436134E-11
      2.45972556836054E-01   2.45972556836054E-01   0.00000000000000E+00   1.78353572422887E-09   3.46593874415774E-08
      1.01637141938300E-11   3.64530868800001E-08   2.18762820986216E-17   3.00000000000000E+02  -6.98650358740988E-11
      3.00000000000000E+02  -7.62177217749867E-18   3.00000000000000E+02   3.00000000882055E+02   3.00000190619259E+02
      4.78104272000000E-10
      0.00000000000000E+00   0.00000000000000E+00   0.00000000000000E+00  -2.90141345056335E-08  -9.84491481100418E-09
      0.00000000000000E+00  -3.88590493166377E-08  -3.50937923515974E-17   3.00000000000000E+02  -2.09072487120840E-10
      0.00000000000000E+00   0.00000000000000E+00   0.00000000000000E+00  -5.07684332508292E-11  -1.42279822512546E-11
     -4.97736111190141E-13  -6.54941516132739E-11   1.32292156676187E-17   3.00000000000000E+02  -9.38523439068698E-12
      0.00000000000000E+00   0.00000000000000E+00   0.00000000000000E+00  -4.69964997724162E-11   4.60091829801663E-13
     -2.33470427806605E-10  -2.80006835749219E-10  -1.32627405537607E-18   3.00000000000000E+02  -3.81935185901344E-11
      2.83608408096362E-01   2.83608408096362E-01   0.00000000000000E+00   1.95281001073799E-09   3.72325680945276E-08
      1.91721987345205E-11   3.92045503040001E-08   2.31908507393548E-17   3.00000000000000E+02  -7.23868573359944E-11
      3.00000000000000E+02  -1.04865682163728E-17   3.00000000000000E+02   3.00000000985125E+02   3.00000196482373E+02
      5.04947817600000E-10
      0.00000000000000E+00   0.00000000000000E+00   0.00000000000000E+00  -3.06073477693881E-08  -1.04206135806221E-08
      0.00000000000000E+00  -4.10279613500102E-08  -3.61951283029713E-17   3.00000000000000E+02  -2.11076285426848E-10
      0.00000000000000E+00   0.00000000000000E+00   0.00000000000000E+00  -5.47235913455844E-11  -1.51354236807513E-11
     -5.53351856091952E-13  -7.04123668824276E-11   1.32273968790447E-17   3.00000000000000E+02  -9.85577085136558E-12
      0.00000000000000E+00   0.00000000000000E+00   0.00000000000000E+00  -5.07597668058345E-11   5.07396316476053E-13
     -2.57094955817516E-10  -3.07347326306874E-10  -1.33354639917875E-18   3.00000000000000E+02  -4.23765588499216E-11
      3.15845102508823E-01   3.15845102508823E-01   0.00000000000000E+00   2.09211142513353E-09   3.92826017951727E-08
      3.10078228933900E-11   4.14057210431996E-08   2.43012778231055E-17   3.00000000000000E+02  -7.15519905200901E-11
      3.00000000000000E+02  -1.32983124767491E-17   3.00000000000000E+02   3.00000001062122E+02   3.00000192398591E+02
      5.26422654080000E-10
      0.00000000000000E+00   0.00000000000000E+00   0.00000000000000E+00  -3.18759257561587E-08  -1.08845236100010E-08
      0.00000000000000E+00  -4.27604493661597E-08  -3.71134019609210E-17   3.00000000000000E+02  -2.07084388657604E-10
      0.00000000000000E+00   0.00000000000000E+00   0.00000000000000E+00  -5.83082200833429E-11  -1.59497361394690E-11
     -6.02848399245240E-13  -7.48608046220572E-11   1.32258471658261E-17   3.00000000000000E+02  -1.01030038340948E-11
      0.00000000000000E+00   0.00000000000000E+00   0.00000000000000E+00  -5.42816927809935E-11   5.48504280080327E-13
     -2.77614275277614E-10  -3.31347463778527E-10  -1.33958267119754E-18   3.00000000000000E+02  -4.59704448977670E-11
      3.42999619574464E-01   3.42999619574464E-01   0.00000000000000E+00   2.20359894642488E-09   4.09180080537062E-08
      4.50506344289210E-11   4.31666576345600E-08   2.52271374662926E-17   3.00000000000000E+02  -6.84851466334285E-11
      3.00000000000000E+02  -1.59509014016325E-17   3.00000000000000E+02   3.00000001117175E+02   3.00000183382577E+02
      5.60782392448000E-10
      0.00000000000000E+00   0.00000000000000E+00   0.00000000000000E+00  -3.39058268851765E-08  -1.16195227987409E-08
      0.00000000000000E+00  -4.55253496839174E-08  -3.86776410651722E-17   3.00000000000000E+02  -1.98203506811904E-10
      0.00000000000000E+00   0.00000000000000E+00   0.00000000000000E+00  -6.48402464507370E-11  -1.74093546459308E-11
     -6.97700866184202E-13  -8.29473019628520E-11   1.32230927624216E-17   3.00000000000000E+02  -1.02730824075835E-11
      0.00000000000000E+00   0.00000000000000E+00   0.00000000000000E+00  -6.09942413172771E-11   6.24515537416940E-13
     -3.15489469075982E-10  -3.75859194855843E-10  -1.34952984779129E-18   3.00000000000000E+02  -5.25122291623079E-11
      3.89705529045275E-01   3.89705529045275E-01   0.00000000000000E+00   2.36890090378209E-09   4.35339890655737E-08
      8.12662113804914E-11   4.59841561807363E-08   2.68040781505418E-17   3.00000000000000E+02  -6.58095006402264E-11
      3.00000000000000E+02  -2.14506024392237E-17   3.00000000000000E+02   3.00000001203686E+02   3.00000172823615E+02
      5.88270183142400E-10
      0.00000000000000E+00   0.00000000000000E+00   0.00000000000000E+00  -3.55125172945705E-08  -1.22147283475608E-08
      0.00000000000000E+00  -4.77272456421313E-08  -3.99895576038033E-17   3.00000000000000E+02  -1.80445639531815E-10
      0.00000000000000E+00   0.00000000000000E+00   0.00000000000000E+00  -7.19153713226156E-11  -1.89655712248731E-11
     -7.92167871483652E-13  -9.16731104189724E-11   1.32206524532595E-17   3.00000000000000E+02  -1.01624477991137E-11
      0.00000000000000E+00   0.00000000000000E+00   0.00000000000000E+00  -6.86246869844189E-11   6.96299148068747E-13
     -3.51307877290591E-10  -4.19236265126941E-10  -1.35739100883830E-18   3.00000000000000E+02  -5.84799525659594E-11
      4.29178300058771E-01   4.29178300058771E-01   0.00000000000000E+00   2.50184912562494E-09   4.56075539219844E-08
      1.28751970067817E-10   4.82381550176771E-08   2.81262961593821E-17   3.00000000000000E+02  -5.83705021854628E-11
      3.00000000000000E+02  -2.67911481413217E-17   3.00000000000000E+02   3.00000001260669E+02   3.00000149872248E+02
      6.10260415697920E-10
      0.00000000000000E+00   0.00000000000000E+00   0.00000000000000E+00  -3.67901231377860E-08  -1.26897107403590E-08
      0.00000000000000E+00  -4.94798338781449E-08  -4.10776306575922E-17   3.00000000000000E+02  -1.63451407682182E-10
      0.00000000000000E+00   0.00000000000000E+00   0.00000000000000E+00  -7.91647632492643E-11  -2.05394057379164E-11
     -8.85888659372887E-13  -1.00590057646554E-10   1.32185069997719E-17   3.00000000000000E+02  -9.93399953270779E-12
      0.00000000000000E+00   0.00000000000000E+00   0.00000000000000E+00  -7.67297047776838E-11   7.63693168921107E-13
     -3.84964139828971E-10  -4.60930151437733E-10  -1.36338778467655E-18   3.00000000000000E+02  -6.39016501184862E-11
      4.62042443849908E-01   4.62042443849908E-01   0.00000000000000E+00   2.60211523408472E-09   4.72548139598463E-08
      1.84424893298082E-10   5.00413540872291E-08   2.92225114424969E-17   3.00000000000000E+02  -5.35867951045453E-11
      3.00000000000000E+02  -3.17426474677700E-17   3.00000000000000E+02   3.00000001304667E+02   3.00000130493205E+02
      6.45444787786752E-10
      0.00000000000000E+00   0.00000000000000E+00   0.00000000000000E+00  -3.88099323789547E-08  -1.34449877973361E-08
      0.00000000000000E+00  -5.22549201762908E-08  -4.29161872125471E-17   3.00000000000000E+02  -1.43880842521681E-10
      0.00000000000000E+00   0.00000000000000E+00   0.00000000000000E+00  -9.50650905856568E-11  -2.39409553028697E-11
     -1.10517693612341E-12  -1.20111222824650E-10   1.32143985716106E-17   3.00000000000000E+02  -9.57225267861104E-12
      0.00000000000000E+00   0.00000000000000E+00   0.00000000000000E+00  -9.51405708323201E-11   9.08574243792360E-13
     -4.57209202809215E-10  -5.51441199397742E-10  -1.37125907985935E-18   3.00000000000000E+02  -7.51228517088427E-11
      5.17697573368437E-01   5.17697573368437E-01   0.00000000000000E+00   2.74859374164023E-09   4.98535999891901E-08
      3.24278867683018E-10   5.29264725985134E-08   3.10730477207959E-17   3.00000000000000E+02  -5.41907670194955E-11
      3.00000000000000E+02  -4.17163818253296E-17   3.00000000000000E+02   3.00000001403461E+02   3.00000113670317E+02
      6.73592285457818E-10
      0.00000000000000E+00   0.00000000000000E+00   0.00000000000000E+00  -4.03821226490965E-08  -1.40573741263259E-08
      0.00000000000000E+00  -5.44394967754223E-08  -4.44485228212471E-17   3.00000000000000E+02  -1.31698263591474E-10
      0.00000000000000E+00   0.00000000000000E+00   0.00000000000000E+00  -1.13870829879728E-10  -2.79287157509768E-11
     -1.37244520001634E-12  -1.43171990830721E-10   1.32104756890602E-17   3.00000000000000E+02  -9.40719897078566E-12
      0.00000000000000E+00   0.00000000000000E+00   0.00000000000000E+00  -1.17471203120015E-10   1.06563686207597E-12
     -5.35493075030892E-10  -6.51898641288831E-10  -1.37545193025896E-18   3.00000000000000E+02  -8.67584118014399E-11
      5.64131430875710E-01   5.64131430875710E-01   0.00000000000000E+00   2.85880753290779E-09   5.18749096403488E-08
      5.00850234285380E-10   5.52345674075420E-08   3.26134990624458E-17   3.00000000000000E+02  -5.86645214820568E-11
      3.00000000000000E+02  -5.12480180287414E-17   3.00000000000000E+02   3.00000001512990E+02   3.00000126751729E+02
      7.18628281731523E-10
      0.00000000000000E+00   0.00000000000000E+00   0.00000000000000E+00  -4.27691080791665E-08  -1.50429985421088E-08
      0.00000000000000E+00  -5.78121066212753E-08  -4.70521486396181E-17   3.00000000000000E+02  -1.33498580299058E-10
      0.00000000000000E+00   0.00000000000000E+00   0.00000000000000E+00  -1.59210208489746E-10  -3.74388540770333E-11
     -2.24667020128055E-12  -1.98895732768060E-10   1.32017525870251E-17   3.00000000000000E+02  -1.01145600304228E-11
      0.00000000000000E+00   0.00000000000000E+00   0.00000000000000E+00  -1.72522825877820E-10   1.49088812684994E-12
     -7.45484810190644E-10  -9.16516747941614E-10  -1.37266923103039E-18   3.00000000000000E+02  -1.17747955149849E-10
      6.42943114249802E-01   6.42943114249802E-01   0.00000000000000E+00   3.01145459410194E-09   5.49402616029379E-08
      9.75802904945075E-10   5.89275191019849E-08   3.52230652836235E-17   3.00000000000000E+02  -8.41723432778129E-11
      3.00000000000000E+02  -7.13900099316817E-17   3.00000000000000E+02   3.00000001856788E+02   3.00000172855711E+02
      7.90685875769451E-10
      0.00000000000000E+00   0.00000000000000E+00   0.00000000000000E+00  -4.59904626944142E-08  -1.65934322228917E-08
      0.00000000000000E+00  -6.25838949173059E-08  -5.15617935328816E-17   3.00000000000000E+02  -2.18562413444076E-10
      0.00000000000000E+00   0.00000000000000E+00   0.00000000000000E+00  -2.78434269864684E-10  -6.20432846958632E-11
     -8.10377655067300E-12  -3.48581331111220E-10   1.31776057397895E-17   3.00000000000000E+02  -1.69760057230728E-11
      0.00000000000000E+00   0.00000000000000E+00   0.00000000000000E+00  -3.21092519977664E-10   3.24223258592810E-12
     -1.58591527728604E-09  -1.90376556467778E-09  -1.32419353791705E-18   3.00000000000000E+02  -2.50090289863020E-10
      7.78813347557538E-01   7.78813347557538E-01   0.00000000000000E+00   3.18513994155499E-09   5.90808335036225E-08
      2.57026836791751E-09   6.48362418130950E-08   3.97083813310092E-17   3.00000000000000E+02  -1.92999169842249E-10
      3.00000000000000E+02  -1.22072142323088E-16   3.00000000000000E+02   3.00000003444547E+02   3.00000368341128E+02
      9.05978026230136E-10
      0.00000000000000E+00   0.00000000000000E+00   0.00000000000000E+00  -4.82621806336191E-08  -1.81665312548500E-08
      0.00000000000000E+00  -6.64287118884691E-08  -5.92205025788364E-17   3.00000000000000E+02  -9.06118577387744E-10
      0.00000000000000E+00   0.00000000000000E+00   0.00000000000000E+00  -4.79868669357878E-10  -9.86463025570936E-11
     -1.54273767844469E-10  -7.32788739759440E-10   1.31136089630978E-17   3.00000000000000E+02  -6.93006989105923E-11
      0.00000000000000E+00   0.00000000000000E+00   0.00000000000000E+00  -5.82801047961244E-10   1.43495660349861E-11
     -6.56024604071638E-09  -7.12869752264264E-09  -1.12569400041583E-18   3.00000000000000E+02  -1.19618798447049E-09
      1.00808189854965E+00   1.00808189854965E+00   0.00000000000000E+00   3.25497584246497E-09   6.20883788987771E-08
      8.94684340962898E-09   7.42901981508711E-08   4.72325876161546E-17   3.00000000000000E+02  -7.29227205695324E-10
      3.00000000000000E+02  -3.37621518358761E-16   3.00000000000000E+02   3.00000014465155E+02   3.00001724681053E+02
      1.09044546696723E-09
      0.00000000000000E+00   0.00000000000000E+00   0.00000000000000E+00  -4.19671877162172E-08  -1.63201357127017E-08
      0.00000000000000E+00  -5.82873234289189E-08  -6.99726159591846E-17   3.00000000000000E+02  -6.03382841373257E-09
      0.00000000000000E+00   0.00000000000000E+00   0.00000000000000E+00  -5.02690499696818E-10   1.07667625930298E-10
     -5.58756177004624E-09  -5.98258464381276E-09   1.30456316082371E-17   3.00000000000000E+02  -3.78916269166585E-10
      0.00000000000000E+00   0.00000000000000E+00   0.00000000000000E+00  -6.08654787173837E-10   5.92544658202393E-11
     -2.45972198972278E-08  -2.51466202185814E-08  -8.09993093658818E-19   3.00000000000000E+02  -5.78324334098542E-09
      1.33108275649264E+00   1.33108275649264E+00   0.00000000000000E+00   2.82400779036866E-09   5.44795422411889E-08
      3.21129782597553E-08   8.94165282913130E-08   5.77369774446060E-17   3.00000000000000E+02  -3.27334484080562E-09
      3.00000000000000E+02  -3.85714723954415E-15   3.00000000000000E+02   3.00000093237637E+02   3.00008082459188E+02
      1.38559337214658E-09
      0.00000000000000E+00   0.00000000000000E+00   0.00000000000000E+00  -2.41515783709136E-08  -9.87678133800174E-09
      0.00000000000000E+00  -3.40283597089154E-08  -8.00160150439604E-17   3.00000000000000E+02  -2.71456858230028E-08
      0.00000000000000E+00   0.00000000000000E+00   0.00000000000000E+00  -2.88040779219143E-10   1.65838115986833E-09
     -3.60785631304118E-08  -3.47082227497626E-08   1.31483005607980E-17   3.00000000000000E+02  -1.56167333243154E-09
      0.00000000000000E+00   0.00000000000000E+00   0.00000000000000E+00  -3.02803482942815E-10   1.15284014157856E-10
     -4.46945545885565E-08  -4.48820740573415E-08  -6.32650322522692E-19   3.00000000000000E+02  -1.35609331814690E-08
      1.63083161993918E+00   1.63083161993918E+00   0.00000000000000E+00   1.64778038460975E-09   3.33209960567220E-08